 Gaussian 09, Revision E.01,
 Gaussian 09:  EM64L-G09RevE.01 30-Nov-2015

 ------------------------------
 #p b3lyp/6-311++G(3df,2p) freq
 ------------------------------

 ---------
 b3lyp opt
 ---------
 Symbolic Z-matrix:
 Charge =  0 Multiplicity = 4

                         Standard orientation:
 ---------------------------------------------------------------------
 Center     Atomic      Atomic             Coordinates (Angstroms)
 Number     Number       Type             X           Y           Z
 ---------------------------------------------------------------------
      1         16           0        1.399794   -0.102311   -0.098741
      2         16           0       -1.489798   -0.139772   -0.009390
      3          6           0       -0.044496    0.728143    0.091892
      4          1           0        1.707049   -0.495524    1.178745
 ---------------------------------------------------------------------

 SCF Done:  E(UB3LYP) =  -835.007939518     A.U. after   17 cycles

 The electronic state is 4-A.
 Alpha  occ. eigenvalues --  -88.92274 -88.88945 -10.23727  -8.00575  -7.97211
 Alpha  occ. eigenvalues --   -5.96750  -5.96696  -5.96383  -5.93946  -5.93261
 Alpha  occ. eigenvalues --   -5.92839  -0.86298  -0.76056  -0.57789  -0.46019
 Alpha  occ. eigenvalues --   -0.41181  -0.40265  -0.33287  -0.29761  -0.24350
 Alpha  occ. eigenvalues --   -0.19638
 Alpha virt. eigenvalues --   -0.02517  -0.00394   0.02239   0.02753   0.03979
 Alpha virt. eigenvalues --    0.04103   0.05876   0.06875   0.08837   0.09700
 Alpha virt. eigenvalues --    0.09973   0.10483   0.11102   0.12600   0.14435

  Beta  occ. eigenvalues --  -88.91933 -88.88211 -10.21560  -8.00241  -7.96538
  Beta  occ. eigenvalues --   -5.96514  -5.96128  -5.95744  -5.92727  -5.92205
  Beta  occ. eigenvalues --   -5.91999  -0.82938  -0.72266  -0.53333  -0.42955
  Beta  occ. eigenvalues --   -0.38379  -0.33458  -0.28849
  Beta virt. eigenvalues --   -0.18503  -0.10474  -0.08024  -0.01383   0.00716
  Beta virt. eigenvalues --    0.02840   0.03538   0.04360   0.04678   0.06387
  Beta virt. eigenvalues --    0.07046   0.09246   0.10782   0.10836   0.11556

 Mulliken charges and spin densities:
               1          2
     1  S    0.073185   0.527603
     2  S   -0.095539   1.186844
     3  C   -0.084093   1.189171
     4  H    0.106446   0.096381
 Sum of Mulliken charges =  -0.00000   3.00000

 Dipole moment (field-independent basis, Debye):
    X=              1.4359    Y=             -0.7629    Z=              0.6086  Tot=              1.7362
 Quadrupole moment (field-independent basis, Debye-Ang):
   XX=            -29.8078   YY=            -33.2521   ZZ=            -32.4561
   XY=             -1.0399   XZ=              1.3811   YZ=             -0.5083

  Exact polarizability:  90.935  -1.182  45.796   2.719  -1.175  43.966
 Approx polarizability: 161.321  -3.683  76.964   3.894  -1.701  67.426

                      1                      2                      3
                      A                      A                      A
 Frequencies --    234.6823               398.3857               704.9093
 Red. masses --     14.2991                 1.2072                12.9131
 Frc consts  --      0.4640                 0.1129                 3.7805
 IR Inten    --      1.0117                10.3331                 2.8008

                      4                      5                      6
                      A                      A                      A
 Frequencies --    908.3970              1030.0972              2375.7600
 Red. masses --      1.1688                 9.9878                 1.0404
 Frc consts  --      0.5683                 6.2442                 3.4598
 IR Inten    --     10.0138                11.9778                48.3901

 - Thermochemistry -
 -------------------
 Temperature   298.150 Kelvin.  Pressure   1.00000 Atm.
 Atom     1 has atomic number 16 and mass  31.97207

 Molecular mass:    76.95197 amu.
 Principal axes and moments of inertia in atomic units:
                           1         2         3
     Eigenvalues --    33.31313 493.78807 514.91041
           X            0.99987  -0.00495   0.01553
           Y            0.00651   0.99478  -0.10186
           Z           -0.01495   0.10195   0.99468
 This molecule is an asymmetric top.
 Rotational symmetry number  1.
 Rotational temperatures (Kelvin)      2.59999     0.17541     0.16821
 Rotational constants (GHZ):          54.17508     3.65489     3.50496
 Zero-point vibrational energy      33807.9 (Joules/Mol)
                                    8.08027 (Kcal/Mol)
 Warning -- explicit consideration of   2 degrees of freedom as
           vibrations may cause significant error
 Vibrational temperatures:    337.66   573.19  1014.21  1306.98  1482.08
          (Kelvin)           3418.18

 Zero-point correction=                           0.012877 (Hartree/Particle)
 Thermal correction to Energy=                    0.016724
 Thermal correction to Enthalpy=                  0.017669
 Thermal correction to Gibbs Free Energy=        -0.014961
 Sum of electronic and zero-point Energies=           -834.995063
 Sum of electronic and thermal Energies=              -834.991215
 Sum of electronic and thermal Enthalpies=            -834.990271
 Sum of electronic and thermal Free Energies=         -835.022900

                     E (Thermal)             CV                S
                      KCal/Mol        Cal/Mol-Kelvin    Cal/Mol-Kelvin
 Total                   10.495             10.880             68.675
 Electronic               0.000              0.000              2.755
 Translational            0.889              2.981             38.937
 Rotational               0.889              2.981             23.653
 Vibrational              8.717              4.918              3.330
 Vibration     1          0.654              1.788              1.843
 Vibration     2          0.765              1.474              0.969

 Optimization completed.
    -- Stationary point found.
 Normal termination of Gaussian 09 at Wed Aug  3 20:25:04 2016.
