 Gaussian 09, Revision E.01,
 Gaussian 09:  EM64L-G09RevE.01 30-Nov-2015

 ------------------------------
 #p b3lyp/6-311++G(3df,2p) freq
 ------------------------------

 ---------
 b3lyp opt
 ---------
 Symbolic Z-matrix:
 Charge =  1 Multiplicity = 3

                         Standard orientation:
 ---------------------------------------------------------------------
 Center     Atomic      Atomic             Coordinates (Angstroms)
 Number     Number       Type             X           Y           Z
 ---------------------------------------------------------------------
      1         16           0       -0.000000   -1.320732   -0.210077
      2         16           0        0.000000    1.320732   -0.210077
      3          6           0       -0.000000    0.000000    0.805138
      4          1           0       -0.000000    0.000000    1.891621
 ---------------------------------------------------------------------

 SCF Done:  E(UB3LYP) =  -834.773352038     A.U. after   12 cycles

 The electronic state is 3-B1.
 Alpha  occ. eigenvalues --  -89.16906 -89.16906 -10.52480  -8.25042  -8.25038
 Alpha  occ. eigenvalues --   -6.21605  -6.21605  -6.21196  -6.21195  -6.20759
 Alpha  occ. eigenvalues --   -6.20759  -1.13324  -0.99522  -0.84009  -0.72277
 Alpha  occ. eigenvalues --   -0.66329  -0.64519  -0.56804  -0.54894  -0.50687
 Alpha virt. eigenvalues --   -0.35054  -0.21217  -0.16842  -0.15049  -0.13783
 Alpha virt. eigenvalues --   -0.10942  -0.10938  -0.09541  -0.08189  -0.07304
 Alpha virt. eigenvalues --   -0.07181  -0.06590  -0.03943  -0.03087  -0.02460

  Beta  occ. eigenvalues --  -89.16126 -89.16126 -10.52853  -8.24333  -8.24331
  Beta  occ. eigenvalues --   -6.20456  -6.20455  -6.20129  -6.20129  -6.19680
  Beta  occ. eigenvalues --   -6.19679  -1.11367  -0.94807  -0.82686  -0.69805
  Beta  occ. eigenvalues --   -0.64727  -0.61399  -0.51939
  Beta virt. eigenvalues --   -0.43147  -0.39806  -0.33258  -0.20266  -0.15501
  Beta virt. eigenvalues --   -0.14669  -0.13461  -0.10695  -0.10298  -0.08854
  Beta virt. eigenvalues --   -0.07016  -0.06891  -0.06569  -0.06059  -0.03296

 Mulliken charges and spin densities:
               1          2
     1  S    0.346691   1.147673
     2  S    0.346691   1.147673
     3  C    0.046869  -0.293864
     4  H    0.259748  -0.001481
 Sum of Mulliken charges =   1.00000   2.00000

 Dipole moment (field-independent basis, Debye):
    X=              0.0000    Y=             -0.0000    Z=              1.2022  Tot=              1.2022
 Quadrupole moment (field-independent basis, Debye-Ang):
   XX=            -27.2565   YY=            -19.1819   ZZ=            -24.3949
   XY=              0.0000   XZ=              0.0000   YZ=              0.0000

  Exact polarizability:  28.635  -0.000  76.562  -0.000  -0.000  36.890
 Approx polarizability:  47.469   0.000 186.302  -0.000   0.000  63.072

                      1                      2                      3
                     A1                     B2                     B1
 Frequencies --    305.5572               739.1580               862.2548
 Red. masses --     20.4164                 6.5891                 1.3473
 Frc consts  --      1.1231                 2.1210                 0.5902
 IR Inten    --      0.5194                 2.1782                29.0216

                      4                      5                      6
                     A1                     B2                     A1
 Frequencies --    930.0666              1189.8627              3151.8480
 Red. masses --      8.1376                 1.1476                 1.0938
 Frc consts  --      4.1474                 0.9573                 6.4018
 IR Inten    --      4.2277                14.2473                25.9491

 - Thermochemistry -
 -------------------
 Temperature   298.150 Kelvin.  Pressure   1.00000 Atm.
 Atom     1 has atomic number 16 and mass  31.97207

 Molecular mass:    76.95197 amu.
 Principal axes and moments of inertia in atomic units:
                           1         2         3
     Eigenvalues --    50.57341 398.31597 448.88938
           X            0.00000   0.00000   1.00000
           Y            1.00000   0.00000  -0.00000
           Z            0.00000   1.00000   0.00000
 This molecule is an asymmetric top.
 Rotational symmetry number  2.
 Rotational temperatures (Kelvin)      1.71264     0.21745     0.19295
 Rotational constants (GHZ):          35.68558     4.53093     4.02046
 Zero-point vibrational energy      42938.4 (Joules/Mol)
                                   10.26253 (Kcal/Mol)
 Warning -- explicit consideration of   1 degrees of freedom as
           vibrations may cause significant error
 Vibrational temperatures:    439.63  1063.48  1240.59  1338.16  1711.94
          (Kelvin)           4534.80

 Zero-point correction=                           0.016354 (Hartree/Particle)
 Thermal correction to Energy=                    0.019826
 Thermal correction to Enthalpy=                  0.020770
 Thermal correction to Gibbs Free Energy=        -0.010322
 Sum of electronic and zero-point Energies=           -834.756998
 Sum of electronic and thermal Energies=              -834.753526
 Sum of electronic and thermal Enthalpies=            -834.752582
 Sum of electronic and thermal Free Energies=         -834.783674

                     E (Thermal)             CV                S
                      KCal/Mol        Cal/Mol-Kelvin    Cal/Mol-Kelvin
 Total                   12.441              9.607             65.439
 Electronic               0.000              0.000              2.183
 Translational            0.889              2.981             38.937
 Rotational               0.889              2.981             22.340
 Vibrational             10.664              3.645              1.978
 Vibration     1          0.696              1.663              1.386

 Optimization completed.
    -- Stationary point found.
 Normal termination of Gaussian 09 at Wed Aug  3 23:08:28 2016.
