 Gaussian 09, Revision E.01,
 Gaussian 09:  EM64L-G09RevE.01 30-Nov-2015

 ------------------------------
 #p b3lyp/6-311++G(3df,2p) freq
 ------------------------------

 ---------
 b3lyp opt
 ---------
 Symbolic Z-matrix:
 Charge =  0 Multiplicity = 4

                         Standard orientation:
 ---------------------------------------------------------------------
 Center     Atomic      Atomic             Coordinates (Angstroms)
 Number     Number       Type             X           Y           Z
 ---------------------------------------------------------------------
      1         16           0       -1.263520    0.144737   -0.088610
      2         16           0        0.704119   -0.495498    0.019955
      3          6           0        1.736648    0.871002   -0.020899
      4          1           0       -1.469461    0.386173    1.223863
 ---------------------------------------------------------------------

 SCF Done:  E(UB3LYP) =  -834.939604049     A.U. after   19 cycles

 The electronic state is 4-A.
 Alpha  occ. eigenvalues --  -88.92205 -88.90715 -10.25290  -8.00238  -7.99140
 Alpha  occ. eigenvalues --   -5.96688  -5.96396  -5.95727  -5.95534  -5.95101
 Alpha  occ. eigenvalues --   -5.94766  -0.85480  -0.74550  -0.57654  -0.45782
 Alpha  occ. eigenvalues --   -0.40665  -0.38045  -0.34238  -0.29749  -0.25496
 Alpha  occ. eigenvalues --   -0.20121
 Alpha virt. eigenvalues --   -0.05571  -0.02667   0.01604   0.02782   0.03959
 Alpha virt. eigenvalues --    0.04064   0.05070   0.06780   0.07176   0.08447
 Alpha virt. eigenvalues --    0.09259   0.09739   0.10878   0.12364   0.12951

  Beta  occ. eigenvalues --  -88.91966 -88.90496 -10.21672  -8.00004  -7.98934
  Beta  occ. eigenvalues --   -5.96427  -5.95980  -5.95344  -5.95203  -5.94898
  Beta  occ. eigenvalues --   -5.94385  -0.83196  -0.71336  -0.51564  -0.43593
  Beta  occ. eigenvalues --   -0.38274  -0.30743  -0.29641
  Beta virt. eigenvalues --   -0.19509  -0.11337  -0.05418  -0.02454  -0.01722
  Beta virt. eigenvalues --    0.02864   0.03332   0.04157   0.04370   0.05995
  Beta virt. eigenvalues --    0.07109   0.07625   0.08840   0.10846   0.11099

 Mulliken charges and spin densities:
               1          2
     1  S   -0.050952   0.302732
     2  S    0.029540   0.379759
     3  C   -0.111460   2.307568
     4  H    0.132873   0.009940
 Sum of Mulliken charges =  -0.00000   3.00000

 Dipole moment (field-independent basis, Debye):
    X=             -1.5221    Y=             -0.3350    Z=              0.8080  Tot=              1.7555
 Quadrupole moment (field-independent basis, Debye-Ang):
   XX=            -32.3598   YY=            -33.3265   ZZ=            -32.1844
   XY=             -1.6588   XZ=             -1.3773   YZ=              0.5566

  Exact polarizability:  96.657  10.792  51.397  -2.239   0.037  43.287
 Approx polarizability: 192.139  25.838  90.543  -2.279   0.497  66.996

                      1                      2                      3
                      A                      A                      A
 Frequencies --    266.8470               331.0648               419.4330
 Red. masses --     11.0314                 1.1568                30.6663
 Frc consts  --      0.4628                 0.0747                 3.1786
 IR Inten    --      3.0375                10.4291                35.6344

                      4                      5                      6
                      A                      A                      A
 Frequencies --    712.2870               836.0543              2606.3396
 Red. masses --     13.9318                 1.0600                 1.0396
 Frc consts  --      4.1645                 0.4366                 4.1607
 IR Inten    --     49.6715                 2.0547                 0.7758

 - Thermochemistry -
 -------------------
 Temperature   298.150 Kelvin.  Pressure   1.00000 Atm.
 Atom     1 has atomic number 16 and mass  31.97207

 Molecular mass:    76.95197 amu.
 Principal axes and moments of inertia in atomic units:
                           1         2         3
     Eigenvalues --    69.62133 382.04010 439.42399
           X            0.99983  -0.00606  -0.01759
           Y            0.00659   0.99952   0.03015
           Z            0.01740  -0.03026   0.99939
 This molecule is an asymmetric top.
 Rotational symmetry number  1.
 Rotational temperatures (Kelvin)      1.24407     0.22671     0.19711
 Rotational constants (GHZ):          25.92224     4.72396     4.10706
 Zero-point vibrational energy      30935.6 (Joules/Mol)
                                    7.39378 (Kcal/Mol)
 Warning -- explicit consideration of   3 degrees of freedom as
           vibrations may cause significant error
 Vibrational temperatures:    383.93   476.33   603.47  1024.82  1202.89
          (Kelvin)           3749.94

 Zero-point correction=                           0.011783 (Hartree/Particle)
 Thermal correction to Energy=                    0.015929
 Thermal correction to Enthalpy=                  0.016873
 Thermal correction to Gibbs Free Energy=        -0.016340
 Sum of electronic and zero-point Energies=           -834.927821
 Sum of electronic and thermal Energies=              -834.923675
 Sum of electronic and thermal Enthalpies=            -834.922731
 Sum of electronic and thermal Free Energies=         -834.955944

                     E (Thermal)             CV                S
                      KCal/Mol        Cal/Mol-Kelvin    Cal/Mol-Kelvin
 Total                    9.995             12.137             69.902
 Electronic               0.000              0.000              2.755
 Translational            0.889              2.981             38.937
 Rotational               0.889              2.981             23.973
 Vibrational              8.218              6.176              4.237
 Vibration     1          0.672              1.734              1.617
 Vibration     2          0.713              1.613              1.255
 Vibration     3          0.782              1.428              0.894

 Optimization completed.
    -- Stationary point found.
 Normal termination of Gaussian 09 at Wed Aug  3 20:25:07 2016.
