 Gaussian 09, Revision E.01,
 Gaussian 09:  EM64L-G09RevE.01 30-Nov-2015

 ------------------------------
 #p b3lyp/6-311++G(3df,2p) freq
 ------------------------------

 ---------
 b3lyp opt
 ---------
 Symbolic Z-matrix:
 Charge =  1 Multiplicity = 3

                         Standard orientation:
 ---------------------------------------------------------------------
 Center     Atomic      Atomic             Coordinates (Angstroms)
 Number     Number       Type             X           Y           Z
 ---------------------------------------------------------------------
      1         16           0        1.532990   -0.091209    0.028105
      2         16           0       -1.425183   -0.173290   -0.011654
      3          6           0        0.065293    0.553277   -0.115510
      4          1           0       -2.116672    0.912331    0.429841
 ---------------------------------------------------------------------

 SCF Done:  E(UB3LYP) =  -834.737511929     A.U. after   17 cycles

 The electronic state is 3-A.
 Alpha  occ. eigenvalues --  -89.18417 -89.15790 -10.51455  -8.26628  -8.23954
 Alpha  occ. eigenvalues --   -6.22931  -6.22736  -6.22380  -6.20648  -6.19934
 Alpha  occ. eigenvalues --   -6.19629  -1.12128  -1.03044  -0.81014  -0.70407
 Alpha  occ. eigenvalues --   -0.67158  -0.64101  -0.58225  -0.55404  -0.46465
 Alpha virt. eigenvalues --   -0.33831  -0.23274  -0.20475  -0.15380  -0.13401
 Alpha virt. eigenvalues --   -0.11197  -0.10440  -0.10262  -0.08895  -0.07168
 Alpha virt. eigenvalues --   -0.06502  -0.06021  -0.05238  -0.04435  -0.02361

  Beta  occ. eigenvalues --  -89.18022 -89.15137 -10.50537  -8.26265  -8.23358
  Beta  occ. eigenvalues --   -6.22414  -6.22089  -6.21871  -6.19466  -6.19264
  Beta  occ. eigenvalues --   -6.18713  -1.09883  -0.99949  -0.78450  -0.67901
  Beta  occ. eigenvalues --   -0.65011  -0.59929  -0.54320
  Beta virt. eigenvalues --   -0.44756  -0.34445  -0.31117  -0.22595  -0.18953
  Beta virt. eigenvalues --   -0.14433  -0.12497  -0.10498  -0.10121  -0.09969
  Beta virt. eigenvalues --   -0.08028  -0.06881  -0.05960  -0.05448  -0.04542

 Mulliken charges and spin densities:
               1          2
     1  S    0.339240   0.979560
     2  S    0.301117   0.586036
     3  C    0.128062   0.427661
     4  H    0.231581   0.006743
 Sum of Mulliken charges =   1.00000   2.00000

 Dipole moment (field-independent basis, Debye):
    X=             -1.6525    Y=              0.1722    Z=              0.3721  Tot=              1.7026
 Quadrupole moment (field-independent basis, Debye-Ang):
   XX=            -12.4851   YY=            -27.9714   ZZ=            -27.5310
   XY=             -2.2038   XZ=             -1.1929   YZ=              0.2629

  Exact polarizability:  80.301  -1.321  35.333  -1.054   0.108  30.179
 Approx polarizability: 164.690  -4.845  60.317  -1.567  -0.695  48.985

                      1                      2                      3
                      A                      A                      A
 Frequencies --    185.4806               327.7091               704.2820
 Red. masses --      3.1937                 1.8344                 9.2025
 Frc consts  --      0.0647                 0.1161                 2.6894
 IR Inten    --     12.4985                23.2632                 1.0690

                      4                      5                      6
                      A                      A                      A
 Frequencies --    931.2958              1078.3066              2555.1216
 Red. masses --      1.4471                 3.7748                 1.0391
 Frc consts  --      0.7395                 2.5860                 3.9971
 IR Inten    --      4.5358                27.8277                71.2686

 - Thermochemistry -
 -------------------
 Temperature   298.150 Kelvin.  Pressure   1.00000 Atm.
 Atom     1 has atomic number 16 and mass  31.97207

 Molecular mass:    76.95197 amu.
 Principal axes and moments of inertia in atomic units:
                           1         2         3
     Eigenvalues --    21.67162 517.64458 536.90930
           X            0.99988  -0.01342  -0.00732
           Y            0.01393   0.99705   0.07552
           Z            0.00629  -0.07561   0.99712
 This molecule is an asymmetric top.
 Rotational symmetry number  1.
 Rotational temperatures (Kelvin)      3.99665     0.16732     0.16132
 Rotational constants (GHZ):          83.27671     3.48645     3.36135
 Zero-point vibrational energy      34585.2 (Joules/Mol)
                                    8.26606 (Kcal/Mol)
 Warning -- explicit consideration of   2 degrees of freedom as
           vibrations may cause significant error
 Vibrational temperatures:    266.86   471.50  1013.30  1339.93  1551.44
          (Kelvin)           3676.25

 Zero-point correction=                           0.013173 (Hartree/Particle)
 Thermal correction to Energy=                    0.017162
 Thermal correction to Enthalpy=                  0.018106
 Thermal correction to Gibbs Free Energy=        -0.014427
 Sum of electronic and zero-point Energies=           -834.724339
 Sum of electronic and thermal Energies=              -834.720350
 Sum of electronic and thermal Enthalpies=            -834.719406
 Sum of electronic and thermal Free Energies=         -834.751939

                     E (Thermal)             CV                S
                      KCal/Mol        Cal/Mol-Kelvin    Cal/Mol-Kelvin
 Total                   10.769             11.022             68.471
 Electronic               0.000              0.000              2.183
 Translational            0.889              2.981             38.937
 Rotational               0.889              2.981             23.314
 Vibrational              8.992              5.060              4.036
 Vibration     1          0.632              1.860              2.273
 Vibration     2          0.711              1.620              1.271

 Optimization completed.
    -- Stationary point found.
 Normal termination of Gaussian 09 at Wed Aug  3 20:27:20 2016.
