 Gaussian 09, Revision E.01,
 Gaussian 09:  EM64L-G09RevE.01 30-Nov-2015

 ------------------------------
 #p b3lyp/6-311++G(3df,2p) freq
 ------------------------------

 ---------
 b3lyp opt
 ---------
 Symbolic Z-matrix:
 Charge =  1 Multiplicity = 3

                         Standard orientation:
 ---------------------------------------------------------------------
 Center     Atomic      Atomic             Coordinates (Angstroms)
 Number     Number       Type             X           Y           Z
 ---------------------------------------------------------------------
      1         16           0        1.553261    0.091939   -0.020465
      2         16           0       -1.490297    0.008663   -0.034567
      3          6           0        0.065303   -0.492826    0.104288
      4          1           0       -1.399248    1.347314    0.254782
 ---------------------------------------------------------------------

 SCF Done:  E(UB3LYP) =  -834.734404937     A.U. after   17 cycles

 The electronic state is 3-A.
 Alpha  occ. eigenvalues --  -89.18751 -89.15914 -10.51305  -8.26924  -8.24066
 Alpha  occ. eigenvalues --   -6.23253  -6.23053  -6.22568  -6.20773  -6.20049
 Alpha  occ. eigenvalues --   -6.19727  -1.12178  -1.03389  -0.81896  -0.71190
 Alpha  occ. eigenvalues --   -0.66085  -0.64221  -0.58095  -0.55771  -0.46347
 Alpha virt. eigenvalues --   -0.33796  -0.23551  -0.19261  -0.15865  -0.14231
 Alpha virt. eigenvalues --   -0.10883  -0.10654  -0.10523  -0.08254  -0.07155
 Alpha virt. eigenvalues --   -0.06931  -0.06120  -0.05342  -0.03663  -0.02519

  Beta  occ. eigenvalues --  -89.18393 -89.15260 -10.50431  -8.26575  -8.23467
  Beta  occ. eigenvalues --   -6.22821  -6.22354  -6.22207  -6.19598  -6.19365
  Beta  occ. eigenvalues --   -6.18810  -1.09832  -1.00250  -0.79275  -0.69056
  Beta  occ. eigenvalues --   -0.63883  -0.60130  -0.54126
  Beta virt. eigenvalues --   -0.45188  -0.34526  -0.31007  -0.22479  -0.17712
  Beta virt. eigenvalues --   -0.15290  -0.12953  -0.10654  -0.10218  -0.09976
  Beta virt. eigenvalues --   -0.07404  -0.06880  -0.06370  -0.05424  -0.04644

 Mulliken charges and spin densities:
               1          2
     1  S    0.337251   0.974981
     2  S    0.332951   0.509204
     3  C    0.133132   0.440342
     4  H    0.196666   0.075473
 Sum of Mulliken charges =   1.00000   2.00000

 Dipole moment (field-independent basis, Debye):
    X=             -1.1149    Y=              1.5045    Z=              0.2047  Tot=              1.8837
 Quadrupole moment (field-independent basis, Debye-Ang):
   XX=            -14.7891   YY=            -26.8966   ZZ=            -27.5171
   XY=             -1.4334   XZ=             -0.1629   YZ=              0.0686

  Exact polarizability:  78.577  -1.645  36.758   0.034   0.072  29.865
 Approx polarizability: 162.301   1.068  62.337   0.791  -0.554  48.379

                      1                      2                      3
                      A                      A                      A
 Frequencies --    150.8006               333.6534               634.0796
 Red. masses --      4.2272                 1.8746                11.0693
 Frc consts  --      0.0566                 0.1230                 2.6221
 IR Inten    --      5.5328                11.7462                 0.7397

                      4                      5                      6
                      A                      A                      A
 Frequencies --    918.3888              1098.3714              2441.2270
 Red. masses --      1.2323                10.4290                 1.0393
 Frc consts  --      0.6124                 7.4130                 3.6493
 IR Inten    --     20.3271                28.8122                14.9464

 - Thermochemistry -
 -------------------
 Temperature   298.150 Kelvin.  Pressure   1.00000 Atm.
 Atom     1 has atomic number 16 and mass  31.97207

 Molecular mass:    76.95197 amu.
 Principal axes and moments of inertia in atomic units:
                           1         2         3
     Eigenvalues --    18.62155 537.05576 554.10499
           X            0.99991  -0.01281  -0.00330
           Y            0.01302   0.99722   0.07337
           Z            0.00236  -0.07341   0.99730
 This molecule is an asymmetric top.
 Rotational symmetry number  1.
 Rotational temperatures (Kelvin)      4.65127     0.16128     0.15631
 Rotational constants (GHZ):          96.91680     3.36044     3.25704
 Zero-point vibrational energy      33355.0 (Joules/Mol)
                                    7.97204 (Kcal/Mol)
 Warning -- explicit consideration of   2 degrees of freedom as
           vibrations may cause significant error
 Vibrational temperatures:    216.97   480.05   912.30  1321.36  1580.31
          (Kelvin)           3512.38

 Zero-point correction=                           0.012704 (Hartree/Particle)
 Thermal correction to Energy=                    0.016776
 Thermal correction to Enthalpy=                  0.017720
 Thermal correction to Gibbs Free Energy=        -0.014989
 Sum of electronic and zero-point Energies=           -834.721701
 Sum of electronic and thermal Energies=              -834.717629
 Sum of electronic and thermal Enthalpies=            -834.716685
 Sum of electronic and thermal Free Energies=         -834.749394

                     E (Thermal)             CV                S
                      KCal/Mol        Cal/Mol-Kelvin    Cal/Mol-Kelvin
 Total                   10.527             11.191             68.843
 Electronic               0.000              0.000              2.183
 Translational            0.889              2.981             38.937
 Rotational               0.889              2.981             23.231
 Vibrational              8.750              5.229              4.492
 Vibration     1          0.618              1.902              2.662
 Vibration     2          0.715              1.608              1.242

 Optimization completed.
    -- Stationary point found.
 Normal termination of Gaussian 09 at Wed Aug  3 20:27:21 2016.
