 Gaussian 09, Revision E.01,
 Gaussian 09:  EM64L-G09RevE.01 30-Nov-2015

 ------------------------------
 #p b3lyp/6-311++G(3df,2p) freq
 ------------------------------

 ---------
 b3lyp opt
 ---------
 Symbolic Z-matrix:
 Charge =  2 Multiplicity = 2

                         Standard orientation:
 ---------------------------------------------------------------------
 Center     Atomic      Atomic             Coordinates (Angstroms)
 Number     Number       Type             X           Y           Z
 ---------------------------------------------------------------------
      1         16           0       -0.442014    1.556203   -0.000000
      2         16           0        0.334915   -1.514756    0.000000
      3          6           0        0.000000    0.116072   -0.000000
      4          1           0        1.713588   -1.359598    0.000000
 ---------------------------------------------------------------------

 SCF Done:  E(UB3LYP) =  -834.217068530     A.U. after   16 cycles

 The electronic state is 2-A".
 Alpha  occ. eigenvalues --  -89.47413 -89.45178 -10.79642  -8.55164  -8.53011
 Alpha  occ. eigenvalues --   -6.51780  -6.51255  -6.50755  -6.49490  -6.48886
 Alpha  occ. eigenvalues --   -6.48835  -1.38477  -1.31949  -1.05681  -0.96447
 Alpha  occ. eigenvalues --   -0.92518  -0.90288  -0.84118  -0.81890
 Alpha virt. eigenvalues --   -0.59576  -0.57798  -0.47726  -0.44537  -0.35931
 Alpha virt. eigenvalues --   -0.33774  -0.29711  -0.28571  -0.26753  -0.26331
 Alpha virt. eigenvalues --   -0.25772  -0.25036  -0.24374  -0.23345  -0.22432

  Beta  occ. eigenvalues --  -89.46910 -89.44819 -10.80045  -8.54702  -8.52683
  Beta  occ. eigenvalues --   -6.50954  -6.50474  -6.50230  -6.48645  -6.48589
  Beta  occ. eigenvalues --   -6.48453  -1.37392  -1.29592  -1.04899  -0.95649
  Beta  occ. eigenvalues --   -0.91722  -0.87304  -0.83498
  Beta virt. eigenvalues --   -0.70857  -0.59578  -0.55691  -0.47304  -0.43479
  Beta virt. eigenvalues --   -0.35429  -0.32458  -0.28098  -0.28045  -0.26690
  Beta virt. eigenvalues --   -0.25887  -0.25537  -0.23612  -0.23000  -0.22297

 Mulliken charges and spin densities:
               1          2
     1  S    0.563686   0.517442
     2  S    0.474111   0.731809
     3  C    0.650743  -0.232038
     4  H    0.311460  -0.017213
 Sum of Mulliken charges =   2.00000   1.00000

 Dipole moment (field-independent basis, Debye):
    X=              1.4900    Y=             -0.8235    Z=              0.0000  Tot=              1.7024
 Quadrupole moment (field-independent basis, Debye-Ang):
   XX=            -18.8567   YY=              0.4805   ZZ=            -24.3279
   XY=             -9.1267   XZ=              0.0000   YZ=             -0.0000

  Exact polarizability:  31.054 -12.527  64.138  -0.000   0.000  24.117
 Approx polarizability:  53.798 -31.833 145.624   0.000  -0.000  38.372

                      1                      2                      3
                     A"                     A'                     A'
 Frequencies --    305.0203               309.9005               565.4061
 Red. masses --      9.7156                 5.8559                17.0017
 Frc consts  --      0.5326                 0.3313                 3.2023
 IR Inten    --      5.0396                 6.7452                 7.0588

                      4                      5                      6
                     A'                     A'                     A'
 Frequencies --    925.3566              1321.9987              2374.7541
 Red. masses --      1.1810                13.5621                 1.0393
 Frc consts  --      0.5958                13.9650                 3.4532
 IR Inten    --     23.7395                23.0240               268.0984

 - Thermochemistry -
 -------------------
 Temperature   298.150 Kelvin.  Pressure   1.00000 Atm.
 Atom     1 has atomic number 16 and mass  31.97207

 Molecular mass:    76.95197 amu.
 Principal axes and moments of inertia in atomic units:
                           1         2         3
     Eigenvalues --     6.67771 584.49127 591.16898
           X           -0.25937   0.96578   0.00000
           Y            0.96578   0.25937   0.00000
           Z           -0.00000  -0.00000   1.00000
 This molecule is an asymmetric top.
 Rotational symmetry number  1.
 Rotational temperatures (Kelvin)     12.97059     0.14819     0.14651
 Rotational constants (GHZ):         270.26346     3.08771     3.05283
 Zero-point vibrational energy      34706.3 (Joules/Mol)
                                    8.29500 (Kcal/Mol)
 Warning -- explicit consideration of   3 degrees of freedom as
           vibrations may cause significant error
 Vibrational temperatures:    438.86   445.88   813.49  1331.38  1902.06
          (Kelvin)           3416.74

 Zero-point correction=                           0.013219 (Hartree/Particle)
 Thermal correction to Energy=                    0.017113
 Thermal correction to Enthalpy=                  0.018057
 Thermal correction to Gibbs Free Energy=        -0.013345
 Sum of electronic and zero-point Energies=           -834.203850
 Sum of electronic and thermal Energies=              -834.199956
 Sum of electronic and thermal Enthalpies=            -834.199012
 Sum of electronic and thermal Free Energies=         -834.230414

                     E (Thermal)             CV                S
                      KCal/Mol        Cal/Mol-Kelvin    Cal/Mol-Kelvin
 Total                   10.738             10.993             66.092
 Electronic               0.000              0.000              1.377
 Translational            0.889              2.981             38.937
 Rotational               0.889              2.981             22.361
 Vibrational              8.961              5.032              3.417
 Vibration     1          0.696              1.664              1.389
 Vibration     2          0.699              1.655              1.363
 Vibration     3          0.921              1.106              0.513

 Optimization completed.
    -- Stationary point found.
 Normal termination of Gaussian 09 at Wed Aug  3 23:08:46 2016.
