 Gaussian 09, Revision E.01,
 Gaussian 09:  EM64L-G09RevE.01 30-Nov-2015

 ------------------------------
 #p b3lyp/6-311++G(3df,2p) freq
 ------------------------------

 ---------
 b3lyp opt
 ---------
 Symbolic Z-matrix:
 Charge =  1 Multiplicity = 1

                         Standard orientation:
 ---------------------------------------------------------------------
 Center     Atomic      Atomic             Coordinates (Angstroms)
 Number     Number       Type             X           Y           Z
 ---------------------------------------------------------------------
      1         16           0        0.000000    1.121683   -0.245406
      2         16           0       -0.000000   -1.121683   -0.245406
      3          6           0        0.000000   -0.000000    0.966928
      4          1           0        0.000000   -0.000000    2.051429
 ---------------------------------------------------------------------

 SCF Done:  E(RB3LYP) =  -834.794964480     A.U. after   10 cycles

 The electronic state is 1-A1.
 Alpha  occ. eigenvalues --  -89.16823 -89.16823 -10.54658  -8.24993  -8.24992
 Alpha  occ. eigenvalues --   -6.21377  -6.21368  -6.20983  -6.20983  -6.20473
 Alpha  occ. eigenvalues --   -6.20473  -1.17115  -0.94562  -0.86215  -0.72628
 Alpha  occ. eigenvalues --   -0.64845  -0.64705  -0.59747  -0.49463
 Alpha virt. eigenvalues --   -0.37073  -0.35731  -0.21602  -0.17436  -0.15550
 Alpha virt. eigenvalues --   -0.13941  -0.11330  -0.10021  -0.09153  -0.08302
 Alpha virt. eigenvalues --   -0.07582  -0.06731  -0.05947  -0.05496  -0.02885

 Mulliken charges:
               1
     1  S    0.286668
     2  S    0.286668
     3  C    0.137162
     4  H    0.289501
 Sum of Mulliken charges =   1.00000

 Dipole moment (field-independent basis, Debye):
    X=             -0.0000    Y=             -0.0000    Z=              1.6342  Tot=              1.6342
 Quadrupole moment (field-independent basis, Debye-Ang):
   XX=            -29.2424   YY=            -20.4532   ZZ=            -21.2391
   XY=              0.0000   XZ=              0.0000   YZ=              0.0000

  Exact polarizability:  28.651   0.000  58.434   0.000   0.000  36.888
 Approx polarizability:  44.978   0.000 167.975   0.000   0.000  69.914

                      1                      2                      3
                     A1                     B2                     B1
 Frequencies --    421.4718               763.3438               864.3844
 Red. masses --     22.6800                 3.8608                 1.2911
 Frc consts  --      2.3737                 1.3255                 0.5684
 IR Inten    --      0.7582                93.7389                24.9456

                      4                      5                      6
                     A1                     B2                     A1
 Frequencies --   1058.1536              1088.6289              3196.2681
 Red. masses --      7.4586                 1.3374                 1.1013
 Frc consts  --      4.9205                 0.9338                 6.6292
 IR Inten    --      9.4024                 0.0186                69.5779

 - Thermochemistry -
 -------------------
 Temperature   298.150 Kelvin.  Pressure   1.00000 Atm.
 Atom     1 has atomic number 16 and mass  31.97207

 Molecular mass:    76.95197 amu.
 Principal axes and moments of inertia in atomic units:
                           1         2         3
     Eigenvalues --    68.77360 287.30199 356.07559
           X            0.00000   0.00000   1.00000
           Y            1.00000  -0.00000  -0.00000
           Z            0.00000   1.00000  -0.00000
 This molecule is an asymmetric top.
 Rotational symmetry number  2.
 Rotational temperatures (Kelvin)      1.25940     0.30147     0.24325
 Rotational constants (GHZ):          26.24177     6.28169     5.06842
 Zero-point vibrational energy      44215.5 (Joules/Mol)
                                   10.56775 (Kcal/Mol)
 Warning -- explicit consideration of   1 degrees of freedom as
           vibrations may cause significant error
 Vibrational temperatures:    606.40  1098.28  1243.65  1522.45  1566.29
          (Kelvin)           4598.71

 Zero-point correction=                           0.016841 (Hartree/Particle)
 Thermal correction to Energy=                    0.020169
 Thermal correction to Enthalpy=                  0.021113
 Thermal correction to Gibbs Free Energy=        -0.008561
 Sum of electronic and zero-point Energies=           -834.778124
 Sum of electronic and thermal Energies=              -834.774795
 Sum of electronic and thermal Enthalpies=            -834.773851
 Sum of electronic and thermal Free Energies=         -834.803525

                     E (Thermal)             CV                S
                      KCal/Mol        Cal/Mol-Kelvin    Cal/Mol-Kelvin
 Total                   12.656              9.256             62.455
 Electronic               0.000              0.000              0.000
 Translational            0.889              2.981             38.937
 Rotational               0.889              2.981             22.091
 Vibrational             10.879              3.295              1.426
 Vibration     1          0.784              1.424              0.887

 Optimization completed.
    -- Stationary point found.
 Normal termination of Gaussian 09 at Wed Aug  3 23:08:07 2016.
