 Gaussian 09, Revision E.01,
 Gaussian 09:  EM64L-G09RevE.01 30-Nov-2015

 ------------------------------
 #p b3lyp/6-311++G(3df,2p) freq
 ------------------------------

 ---------
 b3lyp opt
 ---------
 Symbolic Z-matrix:
 Charge =  0 Multiplicity = 2

                         Standard orientation:
 ---------------------------------------------------------------------
 Center     Atomic      Atomic             Coordinates (Angstroms)
 Number     Number       Type             X           Y           Z
 ---------------------------------------------------------------------
      1         16           0       -0.000000   -1.385267   -0.191845
      2         16           0        0.000000    1.385267   -0.191845
      3          6           0       -0.000000   -0.000000    0.721897
      4          1           0       -0.000000   -0.000000    1.807667
 ---------------------------------------------------------------------

 SCF Done:  E(UB3LYP) =  -835.118472100     A.U. after   12 cycles

 The electronic state is 2-B2.
 Alpha  occ. eigenvalues --  -88.87968 -88.87968 -10.28240  -7.96480  -7.96476
 Alpha  occ. eigenvalues --   -5.92881  -5.92880  -5.92424  -5.92424  -5.92209
 Alpha  occ. eigenvalues --   -5.92209  -0.86518  -0.73054  -0.59468  -0.46975
 Alpha  occ. eigenvalues --   -0.41347  -0.37920  -0.30444  -0.26793  -0.26574
 Alpha virt. eigenvalues --   -0.10365  -0.00994   0.01428   0.02448   0.03459
 Alpha virt. eigenvalues --    0.04478   0.05611   0.07129   0.07365   0.08940
 Alpha virt. eigenvalues --    0.09533   0.09633   0.11431   0.12399   0.13668

  Beta  occ. eigenvalues --  -88.87619 -88.87619 -10.28286  -7.96162  -7.96159
  Beta  occ. eigenvalues --   -5.92356  -5.92356  -5.91998  -5.91998  -5.91686
  Beta  occ. eigenvalues --   -5.91685  -0.85492  -0.71010  -0.58648  -0.45353
  Beta  occ. eigenvalues --   -0.40507  -0.37647  -0.26411  -0.25972
  Beta virt. eigenvalues --   -0.17142  -0.10190  -0.00874   0.01744   0.02683
  Beta virt. eigenvalues --    0.03658   0.04526   0.05996   0.07277   0.07411
  Beta virt. eigenvalues --    0.09388   0.09605   0.09915   0.11645   0.12500

 Mulliken charges and spin densities:
               1          2
     1  S   -0.117382   0.535473
     2  S   -0.117382   0.535473
     3  C    0.042987  -0.070689
     4  H    0.191777  -0.000257
 Sum of Mulliken charges =  -0.00000   1.00000

 Dipole moment (field-independent basis, Debye):
    X=             -0.0000    Y=              0.0000    Z=              1.3794  Tot=              1.3794
 Quadrupole moment (field-independent basis, Debye-Ang):
   XX=            -33.0359   YY=            -32.3200   ZZ=            -29.9811
   XY=             -0.0000   XZ=              0.0000   YZ=              0.0000

  Exact polarizability:  38.708  -0.000 105.682   0.000  -0.000  44.965
 Approx polarizability:  59.934   0.000 269.159  -0.000  -0.000  75.561

                      1                      2                      3
                     A1                     B1                     A1
 Frequencies --    307.5219               836.3673               906.3668
 Red. masses --     19.2102                 1.3877                 8.5983
 Frc consts  --      1.0704                 0.5719                 4.1617
 IR Inten    --      0.0875                23.0254                 1.6640

                      4                      5                      6
                     B2                     B2                     A1
 Frequencies --    909.1622              1221.1535              3121.5594
 Red. masses --      4.8725                 1.2152                 1.0896
 Frc consts  --      2.3729                 1.0676                 6.2554
 IR Inten    --     46.9852                 9.6329                 3.9467

 - Thermochemistry -
 -------------------
 Temperature   298.150 Kelvin.  Pressure   1.00000 Atm.
 Atom     1 has atomic number 16 and mass  31.97207

 Molecular mass:    76.95197 amu.
 Principal axes and moments of inertia in atomic units:
                           1         2         3
     Eigenvalues --    42.34921 438.19334 480.54255
           X            0.00000   0.00000   1.00000
           Y            1.00000   0.00000  -0.00000
           Z           -0.00000   1.00000  -0.00000
 This molecule is an asymmetric top.
 Rotational symmetry number  2.
 Rotational temperatures (Kelvin)      2.04523     0.19766     0.18024
 Rotational constants (GHZ):          42.61570     4.11860     3.75563
 Zero-point vibrational energy      43676.4 (Joules/Mol)
                                   10.43892 (Kcal/Mol)
 Warning -- explicit consideration of   1 degrees of freedom as
           vibrations may cause significant error
 Vibrational temperatures:    442.45  1203.34  1304.06  1308.08  1756.97
          (Kelvin)           4491.22

 Zero-point correction=                           0.016635 (Hartree/Particle)
 Thermal correction to Energy=                    0.020068
 Thermal correction to Enthalpy=                  0.021012
 Thermal correction to Gibbs Free Energy=        -0.009637
 Sum of electronic and zero-point Energies=           -835.101837
 Sum of electronic and thermal Energies=              -835.098404
 Sum of electronic and thermal Enthalpies=            -835.097460
 Sum of electronic and thermal Free Energies=         -835.128109

                     E (Thermal)             CV                S
                      KCal/Mol        Cal/Mol-Kelvin    Cal/Mol-Kelvin
 Total                   12.593              9.384             64.505
 Electronic               0.000              0.000              1.377
 Translational            0.889              2.981             38.937
 Rotational               0.889              2.981             22.327
 Vibrational             10.815              3.423              1.864
 Vibration     1          0.697              1.659              1.376

 Optimization completed.
    -- Stationary point found.
 Normal termination of Gaussian 09 at Wed Aug  3 23:06:39 2016.
