 Gaussian 09, Revision E.01,
 Gaussian 09:  EM64L-G09RevE.01 30-Nov-2015

 ------------------------------
 #p b3lyp/6-311++G(3df,2p) freq
 ------------------------------

 ---------
 b3lyp opt
 ---------
 Symbolic Z-matrix:
 Charge =  0 Multiplicity = 4

                         Standard orientation:
 ---------------------------------------------------------------------
 Center     Atomic      Atomic             Coordinates (Angstroms)
 Number     Number       Type             X           Y           Z
 ---------------------------------------------------------------------
      1         16           0        0.012414   -0.230915    1.284405
      2         16           0        0.012414   -0.230915   -1.284405
      3          6           0        0.012414    0.917850    0.000000
      4          1           0       -0.471747    1.882182    0.000000
 ---------------------------------------------------------------------

 SCF Done:  E(UB3LYP) =  -835.042954637     A.U. after   13 cycles

 The electronic state is 4-A'.
 Alpha  occ. eigenvalues --  -88.90369 -88.90368 -10.22996  -7.98593  -7.98591
 Alpha  occ. eigenvalues --   -5.95014  -5.95014  -5.94825  -5.94824  -5.94383
 Alpha  occ. eigenvalues --   -5.94383  -0.86465  -0.72606  -0.59944  -0.46692
 Alpha  occ. eigenvalues --   -0.40103  -0.39797  -0.33269  -0.30488  -0.25158
 Alpha  occ. eigenvalues --   -0.19864
 Alpha virt. eigenvalues --   -0.01102   0.00828   0.01742   0.03583   0.04443
 Alpha virt. eigenvalues --    0.05708   0.06619   0.07250   0.07764   0.08133
 Alpha virt. eigenvalues --    0.08907   0.12077   0.13248   0.13730   0.14721

  Beta  occ. eigenvalues --  -88.89585 -88.89585 -10.21909  -7.97876  -7.97876
  Beta  occ. eigenvalues --   -5.94060  -5.94059  -5.93446  -5.93446  -5.93406
  Beta  occ. eigenvalues --   -5.93405  -0.82934  -0.67479  -0.56478  -0.43613
  Beta  occ. eigenvalues --   -0.37582  -0.32902  -0.28615
  Beta virt. eigenvalues --   -0.18444  -0.14611  -0.06902  -0.00389   0.01446
  Beta virt. eigenvalues --    0.02450   0.03992   0.04877   0.06330   0.06862
  Beta virt. eigenvalues --    0.07686   0.08581   0.08936   0.10070   0.12772

 Mulliken charges and spin densities:
               1          2
     1  S   -0.008995   1.220794
     2  S   -0.008995   1.220794
     3  C   -0.139910   0.573461
     4  H    0.157900  -0.015049
 Sum of Mulliken charges =   0.00000   3.00000

 Dipole moment (field-independent basis, Debye):
    X=             -0.4669    Y=              0.5757    Z=              0.0000  Tot=              0.7412
 Quadrupole moment (field-independent basis, Debye-Ang):
   XX=            -32.5256   YY=            -31.1968   ZZ=            -31.6640
   XY=             -1.0773   XZ=              0.0000   YZ=             -0.0000

  Exact polarizability:  38.648   0.241  48.259  -0.000  -0.000  89.197
 Approx polarizability:  60.006   0.574  78.459   0.000  -0.000 193.522

                      1                      2                      3
                     A'                     A'                     A"
 Frequencies --    280.2515               472.9967               773.3743
 Red. masses --     16.9936                 1.3781                 7.0715
 Frc consts  --      0.7864                 0.1817                 2.4919
 IR Inten    --      1.9050                42.0653                 3.1385

                      4                      5                      6
                     A'                     A"                     A'
 Frequencies --    858.3056              1104.3746              3195.1153
 Red. masses --      6.2723                 1.1386                 1.0902
 Frc consts  --      2.7225                 0.8182                 6.5574
 IR Inten    --      0.2760                10.7778                 1.0158

 - Thermochemistry -
 -------------------
 Temperature   298.150 Kelvin.  Pressure   1.00000 Atm.
 Atom     1 has atomic number 16 and mass  31.97207

 Molecular mass:    76.95197 amu.
 Principal axes and moments of inertia in atomic units:
                           1         2         3
     Eigenvalues --    61.70012 377.35531 437.75668
           X            0.00000  -0.05508   0.99848
           Y           -0.00000   0.99848   0.05508
           Z            1.00000   0.00000  -0.00000
 This molecule is an asymmetric top.
 Rotational symmetry number  1.
 Rotational temperatures (Kelvin)      1.40379     0.22953     0.19786
 Rotational constants (GHZ):          29.25021     4.78260     4.12270
 Zero-point vibrational energy      39981.7 (Joules/Mol)
                                    9.55586 (Kcal/Mol)
 Warning -- explicit consideration of   2 degrees of freedom as
           vibrations may cause significant error
 Vibrational temperatures:    403.22   680.54  1112.71  1234.91  1588.95
          (Kelvin)           4597.05

 Zero-point correction=                           0.015228 (Hartree/Particle)
 Thermal correction to Energy=                    0.018925
 Thermal correction to Enthalpy=                  0.019869
 Thermal correction to Gibbs Free Energy=        -0.012557
 Sum of electronic and zero-point Energies=           -835.027726
 Sum of electronic and thermal Energies=              -835.024029
 Sum of electronic and thermal Enthalpies=            -835.023085
 Sum of electronic and thermal Free Energies=         -835.055511

                     E (Thermal)             CV                S
                      KCal/Mol        Cal/Mol-Kelvin    Cal/Mol-Kelvin
 Total                   11.876             10.513             68.246
 Electronic               0.000              0.000              2.755
 Translational            0.889              2.981             38.937
 Rotational               0.889              2.981             23.837
 Vibrational             10.098              4.552              2.717
 Vibration     1          0.680              1.710              1.532
 Vibration     2          0.830              1.310              0.729

 Optimization completed.
    -- Stationary point found.
 Normal termination of Gaussian 09 at Wed Aug  3 23:06:51 2016.
