 Gaussian 09, Revision E.01,
 Gaussian 09:  EM64L-G09RevE.01 30-Nov-2015

 ------------------------------
 #p b3lyp/6-311++G(3df,2p) freq
 ------------------------------

 ---------
 b3lyp opt
 ---------
 Symbolic Z-matrix:
 Charge =  0 Multiplicity = 2

                         Standard orientation:
 ---------------------------------------------------------------------
 Center     Atomic      Atomic             Coordinates (Angstroms)
 Number     Number       Type             X           Y           Z
 ---------------------------------------------------------------------
      1         16           0        1.027707   -0.293273    0.004372
      2         16           0       -1.015322   -0.172925   -0.092040
      3          6           0        0.187999    1.310433    0.032262
      4          1           0       -1.326162   -0.403437    1.209111
 ---------------------------------------------------------------------

 SCF Done:  E(UB3LYP) =  -835.002746959     A.U. after   18 cycles

 The electronic state is 2-A.
 Alpha  occ. eigenvalues --  -88.95075 -88.89993 -10.23098  -8.03238  -7.98343
 Alpha  occ. eigenvalues --   -5.99530  -5.99150  -5.98910  -5.94830  -5.94222
 Alpha  occ. eigenvalues --   -5.93886  -0.90098  -0.70383  -0.57523  -0.48303
 Alpha  occ. eigenvalues --   -0.41610  -0.34937  -0.31358  -0.29133  -0.19459
 Alpha virt. eigenvalues --   -0.09694  -0.03794  -0.03549   0.00649   0.02585
 Alpha virt. eigenvalues --    0.03682   0.05852   0.06412   0.07081   0.07245
 Alpha virt. eigenvalues --    0.08642   0.08831   0.09720   0.11412   0.13132

  Beta  occ. eigenvalues --  -88.95091 -88.89905 -10.21847  -8.03248  -7.98262
  Beta  occ. eigenvalues --   -5.99543  -5.99166  -5.98940  -5.94779  -5.94199
  Beta  occ. eigenvalues --   -5.93577  -0.89423  -0.69967  -0.55041  -0.47574
  Beta  occ. eigenvalues --   -0.41197  -0.34169  -0.29208  -0.27370
  Beta virt. eigenvalues --   -0.09451  -0.07281  -0.03161  -0.03012   0.01038
  Beta virt. eigenvalues --    0.02727   0.03753   0.06050   0.06542   0.07112
  Beta virt. eigenvalues --    0.07295   0.08882   0.08895   0.10902   0.11651

 Mulliken charges and spin densities:
               1          2
     1  S   -0.043237   0.157179
     2  S    0.109283   0.001628
     3  C   -0.210273   0.823575
     4  H    0.144227   0.017618
 Sum of Mulliken charges =  -0.00000   1.00000

 Dipole moment (field-independent basis, Debye):
    X=             -1.4367    Y=             -2.3041    Z=              0.7198  Tot=              2.8091
 Quadrupole moment (field-independent basis, Debye-Ang):
   XX=            -28.0998   YY=            -37.3348   ZZ=            -32.3074
   XY=              0.4989   XZ=             -1.3643   YZ=             -0.6165

  Exact polarizability:  61.114   0.515  56.733  -1.547  -0.868  42.122
 Approx polarizability: 126.195   2.221 107.161  -2.117  -1.459  65.950

                      1                      2                      3
                      A                      A                      A
 Frequencies --    373.4725               491.3139               579.8479
 Red. masses --     11.4504                 5.0327                 1.5270
 Frc consts  --      0.9410                 0.7158                 0.3025
 IR Inten    --      2.7295                 3.0341                 9.9955

                      4                      5                      6
                      A                      A                      A
 Frequencies --    680.0847               890.2618              2536.6285
 Red. masses --      7.3327                 1.0602                 1.0399
 Frc consts  --      1.9982                 0.4951                 3.9425
 IR Inten    --     15.2753                 0.7396                 3.1621

 - Thermochemistry -
 -------------------
 Temperature   298.150 Kelvin.  Pressure   1.00000 Atm.
 Atom     1 has atomic number 16 and mass  31.97207

 Molecular mass:    76.95197 amu.
 Principal axes and moments of inertia in atomic units:
                           1         2         3
     Eigenvalues --    93.44990 252.24390 333.62995
           X            0.99965   0.01122  -0.02410
           Y           -0.01175   0.99969  -0.02206
           Z            0.02384   0.02233   0.99947
 This molecule is an asymmetric top.
 Rotational symmetry number  1.
 Rotational temperatures (Kelvin)      0.92685     0.34337     0.25961
 Rotational constants (GHZ):          19.31239     7.15475     5.40941
 Zero-point vibrational energy      33206.0 (Joules/Mol)
                                    7.93642 (Kcal/Mol)
 Warning -- explicit consideration of   3 degrees of freedom as
           vibrations may cause significant error
 Vibrational temperatures:    537.34   706.89   834.27   978.49  1280.89
          (Kelvin)           3649.64

 Zero-point correction=                           0.012647 (Hartree/Particle)
 Thermal correction to Energy=                    0.016395
 Thermal correction to Enthalpy=                  0.017339
 Thermal correction to Gibbs Free Energy=        -0.014305
 Sum of electronic and zero-point Energies=           -834.990099
 Sum of electronic and thermal Energies=              -834.986352
 Sum of electronic and thermal Enthalpies=            -834.985408
 Sum of electronic and thermal Free Energies=         -835.017052

                     E (Thermal)             CV                S
                      KCal/Mol        Cal/Mol-Kelvin    Cal/Mol-Kelvin
 Total                   10.288             11.215             66.601
 Electronic               0.000              0.000              1.377
 Translational            0.889              2.981             38.937
 Rotational               0.889              2.981             23.579
 Vibrational              8.511              5.254              2.707
 Vibration     1          0.745              1.527              1.065
 Vibration     2          0.847              1.269              0.680
 Vibration     3          0.936              1.075              0.486

 Optimization completed.
    -- Stationary point found.
 Normal termination of Gaussian 09 at Wed Aug  3 20:25:08 2016.
