 Gaussian 09, Revision E.01,
 Gaussian 09:  EM64L-G09RevE.01 30-Nov-2015

 ------------------------------
 #p b3lyp/6-311++G(3df,2p) freq
 ------------------------------

 ---------
 b3lyp opt
 ---------
 Symbolic Z-matrix:
 Charge =  2 Multiplicity = 2

                         Standard orientation:
 ---------------------------------------------------------------------
 Center     Atomic      Atomic             Coordinates (Angstroms)
 Number     Number       Type             X           Y           Z
 ---------------------------------------------------------------------
      1         16           0        1.214310    0.203172   -0.000395
      2         16           0       -0.795751   -0.530098   -0.000328
      3          6           0       -1.397945    1.054418    0.000866
      4          1           0        1.690728   -1.095693    0.006368
 ---------------------------------------------------------------------

 SCF Done:  E(UB3LYP) =  -834.075295280     A.U. after   23 cycles

 The electronic state is 2-A.
 Alpha  occ. eigenvalues --  -89.49081 -89.46155 -10.86283  -8.56691  -8.54192
 Alpha  occ. eigenvalues --   -6.53281  -6.52921  -6.52247  -6.50418  -6.50056
 Alpha  occ. eigenvalues --   -6.49991  -1.38966  -1.27389  -1.06331  -0.96941
 Alpha  occ. eigenvalues --   -0.90230  -0.89615  -0.82098  -0.81389
 Alpha virt. eigenvalues --   -0.67121  -0.61795  -0.57518  -0.46835  -0.42771
 Alpha virt. eigenvalues --   -0.35801  -0.32738  -0.30601  -0.30335  -0.27422
 Alpha virt. eigenvalues --   -0.27092  -0.26753  -0.25246  -0.22469  -0.21043

  Beta  occ. eigenvalues --  -89.48484 -89.46136 -10.86052  -8.56146  -8.54172
  Beta  occ. eigenvalues --   -6.52563  -6.51911  -6.51446  -6.50446  -6.49973
  Beta  occ. eigenvalues --   -6.49960  -1.37855  -1.24592  -1.05660  -0.96297
  Beta  occ. eigenvalues --   -0.89086  -0.86141  -0.81856
  Beta virt. eigenvalues --   -0.69996  -0.66564  -0.59880  -0.57117  -0.46225
  Beta virt. eigenvalues --   -0.42012  -0.34875  -0.31093  -0.30145  -0.28606
  Beta virt. eigenvalues --   -0.27251  -0.26473  -0.26138  -0.25096  -0.21761

 Mulliken charges and spin densities:
               1          2
     1  S    0.650194   0.849479
     2  S    0.455099   0.023380
     3  C    0.599389   0.142279
     4  H    0.295318  -0.015138
 Sum of Mulliken charges =   2.00000   1.00000

 Dipole moment (field-independent basis, Debye):
    X=              1.0315    Y=             -0.8552    Z=              0.0051  Tot=              1.3399
 Quadrupole moment (field-independent basis, Debye-Ang):
   XX=             -6.2269   YY=            -20.5304   ZZ=            -25.4979
   XY=             -1.8751   XZ=              0.0135   YZ=             -0.0094

  Exact polarizability:  56.734  -4.706  37.949   0.011  -0.007  25.537
 Approx polarizability: 121.502 -11.504  84.469   0.014  -0.000  41.758

                      1                      2                      3
                      A                      A                      A
 Frequencies --    126.3901               129.3109               389.0537
 Red. masses --      9.8392                 1.1505                28.7794
 Frc consts  --      0.0926                 0.0113                 2.5666
 IR Inten    --      4.8835                29.5811                27.5136

                      4                      5                      6
                      A                      A                      A
 Frequencies --    815.7791               904.6036              2408.6393
 Red. masses --      1.6570                 2.3772                 1.0390
 Frc consts  --      0.6497                 1.1461                 3.5515
 IR Inten    --     50.0658               242.4637               252.8263

 - Thermochemistry -
 -------------------
 Temperature   298.150 Kelvin.  Pressure   1.00000 Atm.
 Atom     1 has atomic number 16 and mass  31.97207

 Molecular mass:    76.95197 amu.
 Principal axes and moments of inertia in atomic units:
                           1         2         3
     Eigenvalues --    88.52908 334.72988 423.25857
           X            0.99964  -0.02675   0.00012
           Y            0.02675   0.99964  -0.00029
           Z           -0.00011   0.00029   1.00000
 This molecule is an asymmetric top.
 Rotational symmetry number  1.
 Rotational temperatures (Kelvin)      0.97837     0.25876     0.20464
 Rotational constants (GHZ):          20.38586     5.39163     4.26392
 Zero-point vibrational energy      28553.5 (Joules/Mol)
                                    6.82446 (Kcal/Mol)
 Warning -- explicit consideration of   3 degrees of freedom as
           vibrations may cause significant error
 Vibrational temperatures:    181.85   186.05   559.76  1173.72  1301.52
          (Kelvin)           3465.49

 Zero-point correction=                           0.010875 (Hartree/Particle)
 Thermal correction to Energy=                    0.015521
 Thermal correction to Enthalpy=                  0.016465
 Thermal correction to Gibbs Free Energy=        -0.017578
 Sum of electronic and zero-point Energies=           -834.064420
 Sum of electronic and thermal Energies=              -834.059775
 Sum of electronic and thermal Enthalpies=            -834.058830
 Sum of electronic and thermal Free Energies=         -834.092874

                     E (Thermal)             CV                S
                      KCal/Mol        Cal/Mol-Kelvin    Cal/Mol-Kelvin
 Total                    9.739             12.427             71.650
 Electronic               0.000              0.000              1.377
 Translational            0.889              2.981             38.937
 Rotational               0.889              2.981             24.043
 Vibrational              7.962              6.466              7.292
 Vibration     1          0.611              1.927              3.000
 Vibration     2          0.612              1.924              2.956
 Vibration     3          0.757              1.494              1.004

 Normal termination of Gaussian 09 at Wed Aug  3 20:29:18 2016.
