 Gaussian 09, Revision E.01,
 Gaussian 09:  EM64L-G09RevE.01 30-Nov-2015

 ------------------------------
 #p b3lyp/6-311++G(3df,2p) freq
 ------------------------------

 ---------
 b3lyp opt
 ---------
 Symbolic Z-matrix:
 Charge =  2 Multiplicity = 4

                         Standard orientation:
 ---------------------------------------------------------------------
 Center     Atomic      Atomic             Coordinates (Angstroms)
 Number     Number       Type             X           Y           Z
 ---------------------------------------------------------------------
      1         16           0        1.612687   -0.143347    0.000000
      2         16           0       -1.475869   -0.126939   -0.000000
      3          6           0       -0.000000    0.542781    0.000000
      4          1           0       -2.189102    1.067905   -0.000000
 ---------------------------------------------------------------------

 SCF Done:  E(UB3LYP) =  -834.113212580     A.U. after   15 cycles

 The electronic state is 4-A".
 Alpha  occ. eigenvalues --  -89.48835 -89.44339 -10.79874  -8.56205  -8.52302
 Alpha  occ. eigenvalues --   -6.52868  -6.52650  -6.51998  -6.48666  -6.48359
 Alpha  occ. eigenvalues --   -6.48066  -1.37790  -1.29885  -1.07369  -0.95880
 Alpha  occ. eigenvalues --   -0.92888  -0.88794  -0.86270  -0.81604  -0.75134
 Alpha virt. eigenvalues --   -0.59437  -0.48730  -0.45646  -0.37661  -0.33615
 Alpha virt. eigenvalues --   -0.30040  -0.29406  -0.26576  -0.26430  -0.26249
 Alpha virt. eigenvalues --   -0.25567  -0.25107  -0.24160  -0.23460  -0.20592

  Beta  occ. eigenvalues --  -89.47591 -89.43973 -10.78634  -8.55071  -8.51961
  Beta  occ. eigenvalues --   -6.51237  -6.50613  -6.50383  -6.48082  -6.47752
  Beta  occ. eigenvalues --   -6.47703  -1.34458  -1.24001  -1.03348  -0.92062
  Beta  occ. eigenvalues --   -0.89116  -0.84378
  Beta virt. eigenvalues --   -0.70875  -0.69700  -0.58939  -0.56043  -0.45371
  Beta virt. eigenvalues --   -0.44318  -0.35084  -0.32600  -0.28129  -0.27779
  Beta virt. eigenvalues --   -0.25836  -0.25791  -0.23858  -0.22793  -0.22711

 Mulliken charges and spin densities:
               1          2
     1  S    0.746801   1.804177
     2  S    0.518535   0.522008
     3  C    0.414069   0.603910
     4  H    0.320596   0.069905
 Sum of Mulliken charges =   2.00000   3.00000

 Dipole moment (field-independent basis, Debye):
    X=             -0.5825    Y=              0.7300    Z=             -0.0000  Tot=              0.9339
 Quadrupole moment (field-independent basis, Debye-Ang):
   XX=              4.1520   YY=            -22.5923   ZZ=            -24.8023
   XY=             -3.4011   XZ=              0.0000   YZ=             -0.0000

  Exact polarizability:  70.360  -2.509  28.865   0.000   0.000  25.196
 Approx polarizability: 143.486   1.753  49.285   0.000   0.000  39.967

                      1                      2                      3
                     A'                     A"                     A'
 Frequencies --    225.8855               404.8722               568.9107
 Red. masses --     12.4214                 1.2795                 6.5949
 Frc consts  --      0.3734                 0.1236                 1.2576
 IR Inten    --      7.4861                40.6616                12.4429

                      4                      5                      6
                     A'                     A'                     A'
 Frequencies --    842.0285               939.0137              2317.3269
 Red. masses --      1.5315                 3.9021                 1.0391
 Frc consts  --      0.6398                 2.0272                 3.2875
 IR Inten    --     12.9049                80.0397               341.0850

 - Thermochemistry -
 -------------------
 Temperature   298.150 Kelvin.  Pressure   1.00000 Atm.
 Atom     1 has atomic number 16 and mass  31.97207

 Molecular mass:    76.95197 amu.
 Principal axes and moments of inertia in atomic units:
                           1         2         3
     Eigenvalues --    20.53694 562.98912 583.52605
           X            0.99970   0.02455  -0.00000
           Y           -0.02455   0.99970  -0.00000
           Z            0.00000   0.00000   1.00000
 This molecule is an asymmetric top.
 Rotational symmetry number  1.
 Rotational temperatures (Kelvin)      4.21747     0.15385     0.14843
 Rotational constants (GHZ):          87.87782     3.20564     3.09282
 Zero-point vibrational energy      31689.3 (Joules/Mol)
                                    7.57392 (Kcal/Mol)
 Warning -- explicit consideration of   3 degrees of freedom as
           vibrations may cause significant error
 Vibrational temperatures:    325.00   582.52   818.53  1211.49  1351.03
          (Kelvin)           3334.11

 Zero-point correction=                           0.012070 (Hartree/Particle)
 Thermal correction to Energy=                    0.016020
 Thermal correction to Enthalpy=                  0.016964
 Thermal correction to Gibbs Free Energy=        -0.015714
 Sum of electronic and zero-point Energies=           -834.101143
 Sum of electronic and thermal Energies=              -834.097193
 Sum of electronic and thermal Enthalpies=            -834.096248
 Sum of electronic and thermal Free Energies=         -834.128927

                     E (Thermal)             CV                S
                      KCal/Mol        Cal/Mol-Kelvin    Cal/Mol-Kelvin
 Total                   10.053             11.358             68.777
 Electronic               0.000              0.000              2.755
 Translational            0.889              2.981             38.937
 Rotational               0.889              2.981             23.427
 Vibrational              8.275              5.396              3.658
 Vibration     1          0.650              1.802              1.911
 Vibration     2          0.770              1.460              0.945
 Vibration     3          0.925              1.099              0.506

 Optimization completed.
    -- Stationary point found.
 Normal termination of Gaussian 09 at Wed Aug  3 23:08:43 2016.
