 Gaussian 09, Revision E.01,
 Gaussian 09:  EM64L-G09RevE.01 30-Nov-2015

 ------------------------------
 #p b3lyp/6-311++G(3df,2p) freq
 ------------------------------

 ---------
 b3lyp opt
 ---------
 Symbolic Z-matrix:
 Charge =  2 Multiplicity = 4

                         Standard orientation:
 ---------------------------------------------------------------------
 Center     Atomic      Atomic             Coordinates (Angstroms)
 Number     Number       Type             X           Y           Z
 ---------------------------------------------------------------------
      1         16           0        0.000000    1.505796   -0.160418
      2         16           0       -0.000000   -1.505796   -0.160418
      3          6           0        0.000000   -0.000000    0.574245
      4          1           0        0.000000   -0.000000    1.687894
 ---------------------------------------------------------------------

 SCF Done:  E(UB3LYP) =  -834.177633673     A.U. after   13 cycles

 The electronic state is 4-B1.
 Alpha  occ. eigenvalues --  -89.47339 -89.47339 -10.77704  -8.54913  -8.54910
 Alpha  occ. eigenvalues --   -6.51556  -6.51555  -6.51289  -6.51289  -6.50677
 Alpha  occ. eigenvalues --   -6.50677  -1.38509  -1.29462  -1.09186  -0.97374
 Alpha  occ. eigenvalues --   -0.93876  -0.89228  -0.82198  -0.81985  -0.81768
 Alpha virt. eigenvalues --   -0.59334  -0.46245  -0.39673  -0.36144  -0.33354
 Alpha virt. eigenvalues --   -0.30529  -0.29731  -0.28922  -0.26657  -0.25379
 Alpha virt. eigenvalues --   -0.25374  -0.24720  -0.23402  -0.22974  -0.20933

  Beta  occ. eigenvalues --  -89.46213 -89.46213 -10.78215  -8.53889  -8.53886
  Beta  occ. eigenvalues --   -6.49953  -6.49953  -6.49537  -6.49537  -6.49253
  Beta  occ. eigenvalues --   -6.49252  -1.35254  -1.22692  -1.05328  -0.93982
  Beta  occ. eigenvalues --   -0.90922  -0.85558
  Beta virt. eigenvalues --   -0.69133  -0.67235  -0.66395  -0.57291  -0.43845
  Beta virt. eigenvalues --   -0.37107  -0.34813  -0.32175  -0.28429  -0.27413
  Beta virt. eigenvalues --   -0.26606  -0.25959  -0.23230  -0.23096  -0.22669

 Mulliken charges and spin densities:
               1          2
     1  S    0.719447   1.633795
     2  S    0.719447   1.633795
     3  C    0.259085  -0.343577
     4  H    0.302021   0.075986
 Sum of Mulliken charges =   2.00000   3.00000

 Dipole moment (field-independent basis, Debye):
    X=             -0.0000    Y=             -0.0000    Z=              0.8286  Tot=              0.8286
 Quadrupole moment (field-independent basis, Debye-Ang):
   XX=            -24.6255   YY=             -2.5026   ZZ=            -19.8106
   XY=              0.0000   XZ=             -0.0000   YZ=              0.0000

  Exact polarizability:  24.432  -0.000  61.237   0.000   0.000  29.340
 Approx polarizability:  38.808   0.000 120.604   0.000  -0.000  48.746

                      1                      2                      3
                     A1                     B1                     A1
 Frequencies --    294.2803               698.8052               713.9527
 Red. masses --     15.7415                 1.5109                10.1402
 Frc consts  --      0.8032                 0.4347                 3.0453
 IR Inten    --      1.4081                27.7568                 0.3474

                      4                      5                      6
                     B2                     B2                     A1
 Frequencies --    745.9226              1110.4445              2858.0787
 Red. masses --      8.0235                 1.0985                 1.0823
 Frc consts  --      2.6303                 0.7981                 5.2087
 IR Inten    --     78.5631                21.9793               211.8106

 - Thermochemistry -
 -------------------
 Temperature   298.150 Kelvin.  Pressure   1.00000 Atm.
 Atom     1 has atomic number 16 and mass  31.97207

 Molecular mass:    76.95197 amu.
 Principal axes and moments of inertia in atomic units:
                           1         2         3
     Eigenvalues --    30.13207 517.76278 547.89486
           X            0.00000   0.00000   1.00000
           Y            1.00000   0.00000  -0.00000
           Z            0.00000   1.00000   0.00000
 This molecule is an asymmetric top.
 Rotational symmetry number  2.
 Rotational temperatures (Kelvin)      2.87447     0.16728     0.15808
 Rotational constants (GHZ):          59.89436     3.48565     3.29396
 Zero-point vibrational energy      38409.0 (Joules/Mol)
                                    9.17997 (Kcal/Mol)
 Warning -- explicit consideration of   1 degrees of freedom as
           vibrations may cause significant error
 Vibrational temperatures:    423.40  1005.42  1027.22  1073.21  1597.68
          (Kelvin)           4112.13

 Zero-point correction=                           0.014629 (Hartree/Particle)
 Thermal correction to Energy=                    0.018229
 Thermal correction to Enthalpy=                  0.019173
 Thermal correction to Gibbs Free Energy=        -0.012347
 Sum of electronic and zero-point Energies=           -834.163004
 Sum of electronic and thermal Energies=              -834.159405
 Sum of electronic and thermal Enthalpies=            -834.158461
 Sum of electronic and thermal Free Energies=         -834.189980

                     E (Thermal)             CV                S
                      KCal/Mol        Cal/Mol-Kelvin    Cal/Mol-Kelvin
 Total                   11.439             10.296             66.339
 Electronic               0.000              0.000              2.755
 Translational            0.889              2.981             38.937
 Rotational               0.889              2.981             22.285
 Vibrational              9.661              4.334              2.363
 Vibration     1          0.689              1.684              1.449

 Optimization completed.
    -- Stationary point found.
 Normal termination of Gaussian 09 at Wed Aug  3 23:08:26 2016.
