 Gaussian 09, Revision E.01,
 Gaussian 09:  EM64L-G09RevE.01 30-Nov-2015

 ------------------------------
 #p b3lyp/6-311++G(3df,2p) freq
 ------------------------------

 ---------
 b3lyp opt
 ---------
 Symbolic Z-matrix:
 Charge =  2 Multiplicity = 4

                         Standard orientation:
 ---------------------------------------------------------------------
 Center     Atomic      Atomic             Coordinates (Angstroms)
 Number     Number       Type             X           Y           Z
 ---------------------------------------------------------------------
      1         16           0        1.631982   -0.107545    0.000000
      2         16           0       -1.541639    0.015714   -0.000000
      3          6           0       -0.000000    0.474777    0.000000
      4          1           0       -1.445498   -1.379370   -0.000000
 ---------------------------------------------------------------------

 SCF Done:  E(UB3LYP) =  -834.108786242     A.U. after   16 cycles

 The electronic state is 4-A".
 Alpha  occ. eigenvalues --  -89.49009 -89.44808 -10.79792  -8.56374  -8.52701
 Alpha  occ. eigenvalues --   -6.53020  -6.52812  -6.52174  -6.49076  -6.48764
 Alpha  occ. eigenvalues --   -6.48402  -1.37926  -1.30458  -1.07949  -0.97672
 Alpha  occ. eigenvalues --   -0.91807  -0.89078  -0.85572  -0.81872  -0.75341
 Alpha virt. eigenvalues --   -0.59425  -0.50055  -0.42702  -0.38692  -0.35393
 Alpha virt. eigenvalues --   -0.29935  -0.29247  -0.27213  -0.26717  -0.26393
 Alpha virt. eigenvalues --   -0.25509  -0.23896  -0.23786  -0.23704  -0.20382

  Beta  occ. eigenvalues --  -89.47789 -89.44463 -10.78523  -8.55262  -8.52361
  Beta  occ. eigenvalues --   -6.51446  -6.50813  -6.50567  -6.48558  -6.48131
  Beta  occ. eigenvalues --   -6.48114  -1.34417  -1.24649  -1.03850  -0.94407
  Beta  occ. eigenvalues --   -0.87044  -0.84597
  Beta virt. eigenvalues --   -0.71152  -0.70043  -0.58779  -0.56012  -0.47434
  Beta virt. eigenvalues --   -0.40100  -0.36356  -0.34579  -0.27642  -0.27511
  Beta virt. eigenvalues --   -0.26177  -0.25570  -0.24036  -0.23213  -0.22674

 Mulliken charges and spin densities:
               1          2
     1  S    0.755422   1.758273
     2  S    0.573434   0.468513
     3  C    0.391346   0.650429
     4  H    0.279798   0.122785
 Sum of Mulliken charges =   2.00000   3.00000

 Dipole moment (field-independent basis, Debye):
    X=              0.1468    Y=             -1.5444    Z=             -0.0000  Tot=              1.5513
 Quadrupole moment (field-independent basis, Debye-Ang):
   XX=              1.4228   YY=            -21.5683   ZZ=            -24.7198
   XY=              2.1066   XZ=              0.0000   YZ=             -0.0000

  Exact polarizability:  70.015   1.684  29.948   0.000   0.000  24.937
 Approx polarizability: 151.704   5.222  50.693   0.000   0.000  39.558

                      1                      2                      3
                     A'                     A"                     A'
 Frequencies --    206.5071               372.8983               518.1763
 Red. masses --      6.2443                 1.7467                 7.6475
 Frc consts  --      0.1569                 0.1431                 1.2098
 IR Inten    --      0.2679                16.0350                43.9615

                      4                      5                      6
                     A'                     A'                     A'
 Frequencies --    852.4599               954.1779              2247.1502
 Red. masses --      1.2769                12.3662                 1.0398
 Frc consts  --      0.5467                 6.6335                 3.0935
 IR Inten    --     30.9458                85.1912               176.3425

 - Thermochemistry -
 -------------------
 Temperature   298.150 Kelvin.  Pressure   1.00000 Atm.
 Atom     1 has atomic number 16 and mass  31.97207

 Molecular mass:    76.95197 amu.
 Principal axes and moments of inertia in atomic units:
                           1         2         3
     Eigenvalues --    17.33179 583.30237 600.63416
           X            0.99961   0.02779  -0.00000
           Y           -0.02779   0.99961  -0.00000
           Z            0.00000   0.00000   1.00000
 This molecule is an asymmetric top.
 Rotational symmetry number  1.
 Rotational temperatures (Kelvin)      4.99740     0.14849     0.14420
 Rotational constants (GHZ):         104.12895     3.09401     3.00473
 Zero-point vibrational energy      30812.0 (Joules/Mol)
                                    7.36425 (Kcal/Mol)
 Warning -- explicit consideration of   3 degrees of freedom as
           vibrations may cause significant error
 Vibrational temperatures:    297.12   536.52   745.54  1226.50  1372.85
          (Kelvin)           3233.14

 Zero-point correction=                           0.011736 (Hartree/Particle)
 Thermal correction to Energy=                    0.015775
 Thermal correction to Enthalpy=                  0.016719
 Thermal correction to Gibbs Free Energy=        -0.016089
 Sum of electronic and zero-point Energies=           -834.097051
 Sum of electronic and thermal Energies=              -834.093011
 Sum of electronic and thermal Enthalpies=            -834.092067
 Sum of electronic and thermal Free Energies=         -834.124876

                     E (Thermal)             CV                S
                      KCal/Mol        Cal/Mol-Kelvin    Cal/Mol-Kelvin
 Total                    9.899             11.533             69.052
 Electronic               0.000              0.000              2.755
 Translational            0.889              2.981             38.937
 Rotational               0.889              2.981             23.322
 Vibrational              8.122              5.571              4.038
 Vibration     1          0.641              1.831              2.074
 Vibration     2          0.744              1.528              1.068
 Vibration     3          0.873              1.210              0.614

 Optimization completed.
    -- Stationary point found.
 Normal termination of Gaussian 09 at Wed Aug  3 23:08:46 2016.
