 Gaussian 09, Revision E.01,
 Gaussian 09:  EM64L-G09RevE.01 30-Nov-2015

 ------------------------------
 #p b3lyp/6-311++G(3df,2p) freq
 ------------------------------

 ---------
 b3lyp opt
 ---------
 Symbolic Z-matrix:
 Charge =  0 Multiplicity = 2

                         Standard orientation:
 ---------------------------------------------------------------------
 Center     Atomic      Atomic             Coordinates (Angstroms)
 Number     Number       Type             X           Y           Z
 ---------------------------------------------------------------------
      1         16           0        1.555674    0.220294   -0.000000
      2         16           0       -1.412428   -0.434872    0.000000
      3          6           0        0.000000    0.474231    0.000000
      4          1           0       -2.291945    0.587855    0.000000
 ---------------------------------------------------------------------

 SCF Done:  E(UB3LYP) =  -835.103403156     A.U. after   15 cycles

 The electronic state is 2-A'.
 Alpha  occ. eigenvalues --  -88.90604 -88.86709 -10.26192  -7.99103  -7.95300
 Alpha  occ. eigenvalues --   -5.95403  -5.95094  -5.94698  -5.91493  -5.91212
 Alpha  occ. eigenvalues --   -5.91191  -0.85508  -0.76815  -0.55625  -0.45600
 Alpha  occ. eigenvalues --   -0.41929  -0.37589  -0.33883  -0.28218  -0.20668
 Alpha virt. eigenvalues --   -0.08524  -0.02699  -0.00258   0.02470   0.03522
 Alpha virt. eigenvalues --    0.04232   0.04520   0.06569   0.07047   0.08673
 Alpha virt. eigenvalues --    0.09278   0.10257   0.11116   0.11665   0.14411

  Beta  occ. eigenvalues --  -88.90555 -88.86470 -10.25242  -7.99056  -7.95081
  Beta  occ. eigenvalues --   -5.95301  -5.94979  -5.94690  -5.91241  -5.91076
  Beta  occ. eigenvalues --   -5.90567  -0.84394  -0.76039  -0.54033  -0.43748
  Beta  occ. eigenvalues --   -0.40634  -0.37052  -0.30216  -0.28047
  Beta virt. eigenvalues --   -0.10334  -0.07416  -0.02567   0.00177   0.02640
  Beta virt. eigenvalues --    0.03753   0.04457   0.04524   0.06745   0.07022
  Beta virt. eigenvalues --    0.08861   0.09500   0.10652   0.11229   0.12070

 Mulliken charges and spin densities:
               1          2
     1  S   -0.156596   0.384431
     2  S   -0.094483   0.084189
     3  C    0.088784   0.517118
     4  H    0.162295   0.014261
 Sum of Mulliken charges =  -0.00000   1.00000

 Dipole moment (field-independent basis, Debye):
    X=             -1.7753    Y=             -0.1425    Z=              0.0000  Tot=              1.7810
 Quadrupole moment (field-independent basis, Debye-Ang):
   XX=            -27.9406   YY=            -33.0733   ZZ=            -32.9597
   XY=             -1.5072   XZ=              0.0000   YZ=              0.0000

  Exact polarizability:  89.445   5.411  43.858   0.000   0.000  38.147
 Approx polarizability: 171.634   7.421  70.487  -0.000  -0.000  59.734

                      1                      2                      3
                     A'                     A"                     A'
 Frequencies --    259.1897               431.9928               634.5392
 Red. masses --     11.8236                 1.3693                15.2367
 Frc consts  --      0.4680                 0.1506                 3.6146
 IR Inten    --      3.4048                18.8015                 7.6462

                      4                      5                      6
                     A'                     A'                     A'
 Frequencies --    961.9874              1283.7557              2612.5727
 Red. masses --      1.1739                 7.1024                 1.0398
 Frc consts  --      0.6400                 6.8964                 4.1814
 IR Inten    --     25.1597               177.3775                 0.6494

 - Thermochemistry -
 -------------------
 Temperature   298.150 Kelvin.  Pressure   1.00000 Atm.
 Atom     1 has atomic number 16 and mass  31.97207

 Molecular mass:    76.95197 amu.
 Principal axes and moments of inertia in atomic units:
                           1         2         3
     Eigenvalues --    16.44306 544.31006 560.75312
           X            0.97937  -0.20208   0.00000
           Y            0.20208   0.97937  -0.00000
           Z           -0.00000   0.00000   1.00000
 This molecule is an asymmetric top.
 Rotational symmetry number  1.
 Rotational temperatures (Kelvin)      5.26750     0.15913     0.15446
 Rotational constants (GHZ):         109.75702     3.31565     3.21842
 Zero-point vibrational energy      36988.8 (Joules/Mol)
                                    8.84053 (Kcal/Mol)
 Warning -- explicit consideration of   2 degrees of freedom as
           vibrations may cause significant error
 Vibrational temperatures:    372.92   621.54   912.96  1384.08  1847.04
          (Kelvin)           3758.90

 Zero-point correction=                           0.014088 (Hartree/Particle)
 Thermal correction to Energy=                    0.017871
 Thermal correction to Enthalpy=                  0.018815
 Thermal correction to Gibbs Free Energy=        -0.012781
 Sum of electronic and zero-point Energies=           -835.089315
 Sum of electronic and thermal Energies=              -835.085533
 Sum of electronic and thermal Enthalpies=            -835.084588
 Sum of electronic and thermal Free Energies=         -835.116184

                     E (Thermal)             CV                S
                      KCal/Mol        Cal/Mol-Kelvin    Cal/Mol-Kelvin
 Total                   11.214             10.647             66.499
 Electronic               0.000              0.000              1.377
 Translational            0.889              2.981             38.937
 Rotational               0.889              2.981             23.133
 Vibrational              9.437              4.685              3.052
 Vibration     1          0.668              1.747              1.667
 Vibration     2          0.793              1.401              0.852

 Optimization completed.
    -- Stationary point found.
 Normal termination of Gaussian 09 at Wed Aug  3 23:07:03 2016.
