 Gaussian 09, Revision E.01,
 Gaussian 09:  EM64L-G09RevE.01 30-Nov-2015

 ------------------------------
 #p b3lyp/6-311++G(3df,2p) freq
 ------------------------------

 ---------
 b3lyp opt
 ---------
 Symbolic Z-matrix:
 Charge =  2 Multiplicity = 2

                         Standard orientation:
 ---------------------------------------------------------------------
 Center     Atomic      Atomic             Coordinates (Angstroms)
 Number     Number       Type             X           Y           Z
 ---------------------------------------------------------------------
      1         16           0        0.000000    1.063981   -0.260243
      2         16           0       -0.000000   -1.063981   -0.260243
      3          6           0        0.000000   -0.000000    1.032576
      4          1           0        0.000000   -0.000000    2.132313
 ---------------------------------------------------------------------

 SCF Done:  E(UB3LYP) =  -834.206037773     A.U. after   13 cycles

 The electronic state is 2-A2.
 Alpha  occ. eigenvalues --  -89.49287 -89.49287 -10.82293  -8.56882  -8.56878
 Alpha  occ. eigenvalues --   -6.53254  -6.53253  -6.52982  -6.52963  -6.52670
 Alpha  occ. eigenvalues --   -6.52669  -1.47280  -1.23104  -1.12877  -1.00085
 Alpha  occ. eigenvalues --   -0.94505  -0.91553  -0.89444  -0.79918
 Alpha virt. eigenvalues --   -0.63031  -0.62090  -0.48160  -0.43963  -0.38045
 Alpha virt. eigenvalues --   -0.34041  -0.33125  -0.30313  -0.28201  -0.27645
 Alpha virt. eigenvalues --   -0.26037  -0.24437  -0.24000  -0.23897  -0.21925

  Beta  occ. eigenvalues --  -89.48858 -89.48858 -10.82579  -8.56494  -8.56489
  Beta  occ. eigenvalues --   -6.52766  -6.52747  -6.52414  -6.52413  -6.51915
  Beta  occ. eigenvalues --   -6.51913  -1.46351  -1.20285  -1.12627  -0.99260
  Beta  occ. eigenvalues --   -0.91133  -0.90852  -0.88597
  Beta virt. eigenvalues --   -0.68369  -0.62055  -0.61161  -0.47770  -0.42934
  Beta virt. eigenvalues --   -0.37635  -0.33589  -0.31394  -0.29763  -0.27855
  Beta virt. eigenvalues --   -0.26689  -0.25808  -0.24418  -0.23731  -0.22031

 Mulliken charges and spin densities:
               1          2
     1  S    0.669640   0.596441
     2  S    0.669640   0.596441
     3  C    0.296410  -0.191226
     4  H    0.364310  -0.001655
 Sum of Mulliken charges =   2.00000   1.00000

 Dipole moment (field-independent basis, Debye):
    X=             -0.0000    Y=              0.0000    Z=              1.6997  Tot=              1.6997
 Quadrupole moment (field-independent basis, Debye-Ang):
   XX=            -24.4461   YY=            -12.1454   ZZ=            -15.3976
   XY=              0.0000   XZ=             -0.0000   YZ=              0.0000

  Exact polarizability:  22.581   0.000  45.330  -0.000   0.000  32.594
 Approx polarizability:  37.110   0.000 115.960   0.000   0.000  62.428

                      1                      2                      3
                     A1                     B2                     B1
 Frequencies --    488.2692               607.2632               863.7107
 Red. masses --     22.7755                 7.1316                 1.2779
 Frc consts  --      3.1992                 1.5495                 0.5617
 IR Inten    --      3.7101                 4.5900                27.5935

                      4                      5                      6
                     B2                     A1                     A1
 Frequencies --   1013.9364              1024.4835              3061.9331
 Red. masses --      1.1639                 7.2168                 1.1066
 Frc consts  --      0.7050                 4.4628                 6.1127
 IR Inten    --     20.5603                24.3176               257.0135

 - Thermochemistry -
 -------------------
 Temperature   298.150 Kelvin.  Pressure   1.00000 Atm.
 Atom     1 has atomic number 16 and mass  31.97207

 Molecular mass:    76.95197 amu.
 Principal axes and moments of inertia in atomic units:
                           1         2         3
     Eigenvalues --    77.31442 258.50319 335.81760
           X            0.00000   0.00000   1.00000
           Y            1.00000  -0.00000  -0.00000
           Z            0.00000   1.00000  -0.00000
 This molecule is an asymmetric top.
 Rotational symmetry number  2.
 Rotational temperatures (Kelvin)      1.12028     0.33506     0.25792
 Rotational constants (GHZ):          23.34288     6.98150     5.37417
 Zero-point vibrational energy      42225.8 (Joules/Mol)
                                   10.09220 (Kcal/Mol)
 Warning -- explicit consideration of   2 degrees of freedom as
           vibrations may cause significant error
 Vibrational temperatures:    702.51   873.72  1242.69  1458.83  1474.00
          (Kelvin)           4405.43

 Zero-point correction=                           0.016083 (Hartree/Particle)
 Thermal correction to Energy=                    0.019435
 Thermal correction to Enthalpy=                  0.020379
 Thermal correction to Gibbs Free Energy=        -0.009943
 Sum of electronic and zero-point Energies=           -834.189955
 Sum of electronic and thermal Energies=              -834.186603
 Sum of electronic and thermal Enthalpies=            -834.185659
 Sum of electronic and thermal Free Energies=         -834.215981

                     E (Thermal)             CV                S
                      KCal/Mol        Cal/Mol-Kelvin    Cal/Mol-Kelvin
 Total                   12.195              9.519             63.819
 Electronic               0.000              0.000              1.377
 Translational            0.889              2.981             38.937
 Rotational               0.889              2.981             22.044
 Vibrational             10.418              3.557              1.460
 Vibration     1          0.844              1.276              0.688
 Vibration     2          0.966              1.016              0.437

 Optimization completed.
    -- Stationary point found.
 Normal termination of Gaussian 09 at Wed Aug  3 23:08:26 2016.
