 Gaussian 09, Revision E.01,
 Gaussian 09:  EM64L-G09RevE.01 30-Nov-2015

 ------------------------------
 #p b3lyp/6-311++G(3df,2p) freq
 ------------------------------

 ---------
 b3lyp opt
 ---------
 Symbolic Z-matrix:
 Charge =  0 Multiplicity = 2

                         Standard orientation:
 ---------------------------------------------------------------------
 Center     Atomic      Atomic             Coordinates (Angstroms)
 Number     Number       Type             X           Y           Z
 ---------------------------------------------------------------------
      1         16           0        0.000000    0.000000    0.079177
      2          1           0        0.000000    0.000000   -1.266824
 ---------------------------------------------------------------------

 SCF Done:  E(UB3LYP) =  -398.777282868     A.U. after   10 cycles

 Unable to determine electronic state:  partially filled degenerate orbitals.
 Alpha  occ. eigenvalues --  -88.88331  -7.96740  -5.93806  -5.92735  -5.91959
 Alpha  occ. eigenvalues --   -0.74151  -0.41732  -0.32607  -0.27959
 Alpha virt. eigenvalues --   -0.01613   0.04188   0.04718   0.05252   0.05599
 Alpha virt. eigenvalues --    0.10993   0.18248   0.20455   0.21240   0.21251
 Alpha virt. eigenvalues --    0.27664   0.31041   0.31329   0.32664   0.51880

  Beta  occ. eigenvalues --  -88.87738  -7.96194  -5.92399  -5.91940  -5.91624
  Beta  occ. eigenvalues --   -0.70149  -0.40448  -0.26657
  Beta virt. eigenvalues --   -0.18266  -0.01245   0.04555   0.05062   0.05565
  Beta virt. eigenvalues --    0.05849   0.11267   0.20685   0.21140   0.24018
  Beta virt. eigenvalues --    0.24376   0.28083   0.31607   0.32936   0.33424

 Mulliken charges and spin densities:
               1          2
     1  S   -0.125500   1.016548
     2  H    0.125500  -0.016548
 Sum of Mulliken charges =   0.00000   1.00000

 Dipole moment (field-independent basis, Debye):
    X=              0.0000    Y=              0.0000    Z=             -0.7694  Tot=              0.7694
 Quadrupole moment (field-independent basis, Debye-Ang):
   XX=            -15.9869   YY=            -13.0955   ZZ=            -12.1621
   XY=              0.0000   XZ=              0.0000   YZ=              0.0000

  Exact polarizability:  22.501  -0.000  17.906  -0.000   0.000  22.249
 Approx polarizability:  28.774  -0.000  25.912  -0.000  -0.000  33.866

                      1
                     SG
 Frequencies --   2675.7689
 Red. masses --      1.0386
 Frc consts  --      4.3811
 IR Inten    --      0.3279

 - Thermochemistry -
 -------------------
 Temperature   298.150 Kelvin.  Pressure   1.00000 Atm.
 Atom     1 has atomic number 16 and mass  31.97207

 Molecular mass:    32.97990 amu.
 Principal axes and moments of inertia in atomic units:
                           1         2         3
     Eigenvalues --     0.00000   6.32114   6.32114
           X            0.00000  -0.00000   1.00000
           Y            0.00000   1.00000   0.00000
           Z            1.00000   0.00000   0.00000
 This molecule is a prolate symmetric top.
 Rotational symmetry number  1.
 Rotational temperature (Kelvin)     13.70225
 Rotational constant (GHZ):         285.508999
 Zero-point vibrational energy      16004.7 (Joules/Mol)
                                    3.82520 (Kcal/Mol)
 Vibrational temperatures:   3849.83
          (Kelvin)

 Zero-point correction=                           0.006096 (Hartree/Particle)
 Thermal correction to Energy=                    0.008456
 Thermal correction to Enthalpy=                  0.009401
 Thermal correction to Gibbs Free Energy=        -0.012407
 Sum of electronic and zero-point Energies=           -398.771187
 Sum of electronic and thermal Energies=              -398.768827
 Sum of electronic and thermal Enthalpies=            -398.767882
 Sum of electronic and thermal Free Energies=         -398.789689

                     E (Thermal)             CV                S
                      KCal/Mol        Cal/Mol-Kelvin    Cal/Mol-Kelvin
 Total                    5.306              4.969             45.897
 Electronic               0.000              0.000              1.377
 Translational            0.889              2.981             36.412
 Rotational               0.592              1.987              8.108
 Vibrational              3.825              0.001              0.000

 Optimization completed.
    -- Stationary point found.
 Normal termination of Gaussian 09 at Wed Aug  3 20:30:45 2016.
