 Gaussian 09, Revision E.01,
 Gaussian 09:  EM64L-G09RevE.01 30-Nov-2015

 ------------------------------
 #p b3lyp/6-311++G(3df,2p) freq
 ------------------------------

 ---------
 b3lyp opt
 ---------
 Symbolic Z-matrix:
 Charge =  1 Multiplicity = 1

                         Standard orientation:
 ---------------------------------------------------------------------
 Center     Atomic      Atomic             Coordinates (Angstroms)
 Number     Number       Type             X           Y           Z
 ---------------------------------------------------------------------
      1         16           0        0.000000    0.000000    0.080585
      2          1           0        0.000000    0.000000   -1.289358
 ---------------------------------------------------------------------

 SCF Done:  E(RB3LYP) =  -398.326102353     A.U. after    8 cycles

 Unable to determine electronic state:  partially filled degenerate orbitals.
 Alpha  occ. eigenvalues --  -89.30723  -8.38309  -6.35779  -6.33976  -6.33108
 Alpha  occ. eigenvalues --   -1.08121  -0.74970  -0.61697
 Alpha virt. eigenvalues --   -0.57570  -0.28033  -0.17943  -0.12430  -0.11882
 Alpha virt. eigenvalues --   -0.11205  -0.10640  -0.08807  -0.07741  -0.07179
 Alpha virt. eigenvalues --   -0.04941   0.05618   0.09528   0.09904   0.10685

 Mulliken charges:
               1
     1  S    0.754167
     2  H    0.245833
 Sum of Mulliken charges =   1.00000

 Dipole moment (field-independent basis, Debye):
    X=              0.0000    Y=              0.0000    Z=             -1.0843  Tot=              1.0843
 Quadrupole moment (field-independent basis, Debye-Ang):
   XX=            -12.6239   YY=             -8.2078   ZZ=             -8.4267
   XY=              0.0000   XZ=              0.0000   YZ=              0.0000

  Exact polarizability:  13.311   0.000  11.503  -0.000   0.000  16.083
 Approx polarizability:  16.707  -0.000  20.313  -0.000  -0.000  23.866

                      1
                     SG
 Frequencies --   2536.9317
 Red. masses --      1.0386
 Frc consts  --      3.9382
 IR Inten    --     83.1258

 - Thermochemistry -
 -------------------
 Temperature   298.150 Kelvin.  Pressure   1.00000 Atm.
 Atom     1 has atomic number 16 and mass  31.97207

 Molecular mass:    32.97990 amu.
 Principal axes and moments of inertia in atomic units:
                           1         2         3
     Eigenvalues --     0.00000   6.54801   6.54801
           X            0.00000  -0.00000   1.00000
           Y            0.00000   1.00000   0.00000
           Z            1.00000   0.00000   0.00000
 This molecule is a prolate symmetric top.
 Rotational symmetry number  1.
 Rotational temperature (Kelvin)     13.22750
 Rotational constant (GHZ):         275.616727
 Zero-point vibrational energy      15174.2 (Joules/Mol)
                                    3.62673 (Kcal/Mol)
 Vibrational temperatures:   3650.07
          (Kelvin)

 Zero-point correction=                           0.005780 (Hartree/Particle)
 Thermal correction to Energy=                    0.008140
 Thermal correction to Enthalpy=                  0.009084
 Thermal correction to Gibbs Free Energy=        -0.012102
 Sum of electronic and zero-point Energies=           -398.320323
 Sum of electronic and thermal Energies=              -398.317962
 Sum of electronic and thermal Enthalpies=            -398.317018
 Sum of electronic and thermal Free Energies=         -398.338204

                     E (Thermal)             CV                S
                      KCal/Mol        Cal/Mol-Kelvin    Cal/Mol-Kelvin
 Total                    5.108              4.969             44.590
 Electronic               0.000              0.000              0.000
 Translational            0.889              2.981             36.412
 Rotational               0.592              1.987              8.178
 Vibrational              3.627              0.001              0.000

 Optimization completed.
    -- Stationary point found.
 Normal termination of Gaussian 09 at Wed Aug  3 20:30:43 2016.
