 Gaussian 09, Revision E.01,
 Gaussian 09:  EM64L-G09RevE.01 30-Nov-2015

 ------------------------------
 #p b3lyp/6-311++G(3df,2p) freq
 ------------------------------

 ---------
 b3lyp opt
 ---------
 Symbolic Z-matrix:
 Charge =  2 Multiplicity = 2

                         Standard orientation:
 ---------------------------------------------------------------------
 Center     Atomic      Atomic             Coordinates (Angstroms)
 Number     Number       Type             X           Y           Z
 ---------------------------------------------------------------------
      1         16           0        0.000000    0.000000    0.085670
      2          1           0        0.000000    0.000000   -1.370727
 ---------------------------------------------------------------------

 SCF Done:  E(UB3LYP) =  -397.574136865     A.U. after   10 cycles

 Unable to determine electronic state:  partially filled degenerate orbitals.
 Alpha  occ. eigenvalues --  -89.79237  -8.85358  -6.82495  -6.81940  -6.80422
 Alpha  occ. eigenvalues --   -1.49202  -1.11489  -1.05582
 Alpha virt. eigenvalues --   -0.95734  -0.63488  -0.43639  -0.43285  -0.42284
 Alpha virt. eigenvalues --   -0.41953  -0.41784  -0.33159  -0.31457  -0.31407
 Alpha virt. eigenvalues --   -0.21266  -0.17792  -0.10640  -0.10609  -0.09852

  Beta  occ. eigenvalues --  -89.78466  -8.84660  -6.82096  -6.79980  -6.79517
  Beta  occ. eigenvalues --   -1.44230  -1.10191
  Beta virt. eigenvalues --   -0.93946  -0.88438  -0.62390  -0.42939  -0.41450
  Beta virt. eigenvalues --   -0.40178  -0.38077  -0.37813  -0.32825  -0.31194
  Beta virt. eigenvalues --   -0.30147  -0.21148  -0.17168  -0.10484  -0.09643

 Mulliken charges and spin densities:
               1          2
     1  S    1.602391   1.020338
     2  H    0.397609  -0.020338
 Sum of Mulliken charges =   2.00000   1.00000

 Dipole moment (field-independent basis, Debye):
    X=              0.0000    Y=              0.0000    Z=             -1.6748  Tot=              1.6748
 Quadrupole moment (field-independent basis, Debye-Ang):
   XX=             -8.3364   YY=             -6.4392   ZZ=             -4.8020
   XY=              0.0000   XZ=              0.0000   YZ=              0.0000

  Exact polarizability:   8.503  -0.000   8.607   0.000   0.000  12.685
 Approx polarizability:  11.110  -0.000  14.307  -0.000  -0.000  18.212

                      1
                     SG
 Frequencies --   1953.3481
 Red. masses --      1.0386
 Frc consts  --      2.3348
 IR Inten    --    423.9716

 - Thermochemistry -
 -------------------
 Temperature   298.150 Kelvin.  Pressure   1.00000 Atm.
 Atom     1 has atomic number 16 and mass  31.97207

 Molecular mass:    32.97990 amu.
 Principal axes and moments of inertia in atomic units:
                           1         2         3
     Eigenvalues --     0.00000   7.40055   7.40055
           X            0.00000  -0.00000   1.00000
           Y            0.00000   1.00000   0.00000
           Z            1.00000   0.00000   0.00000
 This molecule is a prolate symmetric top.
 Rotational symmetry number  1.
 Rotational temperature (Kelvin)     11.70370
 Rotational constant (GHZ):         243.865865
 Zero-point vibrational energy      11683.6 (Joules/Mol)
                                    2.79245 (Kcal/Mol)
 Vibrational temperatures:   2810.43
          (Kelvin)

 Zero-point correction=                           0.004450 (Hartree/Particle)
 Thermal correction to Energy=                    0.006811
 Thermal correction to Enthalpy=                  0.007755
 Thermal correction to Gibbs Free Energy=        -0.014201
 Sum of electronic and zero-point Energies=           -397.569687
 Sum of electronic and thermal Energies=              -397.567326
 Sum of electronic and thermal Enthalpies=            -397.566381
 Sum of electronic and thermal Free Energies=         -397.588338

                     E (Thermal)             CV                S
                      KCal/Mol        Cal/Mol-Kelvin    Cal/Mol-Kelvin
 Total                    4.274              4.982             46.212
 Electronic               0.000              0.000              1.377
 Translational            0.889              2.981             36.412
 Rotational               0.592              1.987              8.421
 Vibrational              2.793              0.014              0.002

 Optimization completed.
    -- Stationary point found.
 Normal termination of Gaussian 09 at Wed Aug  3 20:31:05 2016.
