 Gaussian 09, Revision E.01,
 Gaussian 09:  EM64L-G09RevE.01 30-Nov-2015

 ------------------------------
 #p b3lyp/6-311++G(3df,2p) freq
 ------------------------------

 ---------
 b3lyp opt
 ---------
 Symbolic Z-matrix:
 Charge =  1 Multiplicity = 3

                         Standard orientation:
 ---------------------------------------------------------------------
 Center     Atomic      Atomic             Coordinates (Angstroms)
 Number     Number       Type             X           Y           Z
 ---------------------------------------------------------------------
      1         16           0        0.000000    0.000000    0.080567
      2          1           0        0.000000    0.000000   -1.289078
 ---------------------------------------------------------------------

 SCF Done:  E(UB3LYP) =  -398.392658736     A.U. after   11 cycles

 The electronic state is 3-SG.
 Alpha  occ. eigenvalues --  -89.29809  -8.37528  -6.34252  -6.34252  -6.33011
 Alpha  occ. eigenvalues --   -1.11832  -0.75678  -0.67529  -0.67529
 Alpha virt. eigenvalues --   -0.28678  -0.18018  -0.12381  -0.11866  -0.11866
 Alpha virt. eigenvalues --   -0.10792  -0.10792  -0.10159  -0.10158  -0.04989
 Alpha virt. eigenvalues --    0.05340   0.09507   0.09507   0.09903   0.24679

  Beta  occ. eigenvalues --  -89.28460  -8.36298  -6.32248  -6.31766  -6.31766
  Beta  occ. eigenvalues --   -1.03140  -0.73074
  Beta virt. eigenvalues --   -0.50421  -0.50421  -0.26526  -0.17082  -0.12233
  Beta virt. eigenvalues --   -0.10702  -0.10702  -0.07780  -0.07780  -0.04717
  Beta virt. eigenvalues --   -0.03721  -0.03720   0.06353   0.10361   0.11462

 Mulliken charges and spin densities:
               1          2
     1  S    0.759018   2.032800
     2  H    0.240982  -0.032800
 Sum of Mulliken charges =   1.00000   2.00000

 Dipole moment (field-independent basis, Debye):
    X=              0.0000    Y=              0.0000    Z=             -1.0789  Tot=              1.0789
 Quadrupole moment (field-independent basis, Debye-Ang):
   XX=            -10.2175   YY=            -10.2175   ZZ=             -8.3472
   XY=              0.0000   XZ=              0.0000   YZ=              0.0000

  Exact polarizability:  11.936   0.000  11.936   0.000  -0.000  15.899
 Approx polarizability:  16.761  -0.000  16.761  -0.000  -0.000  23.020

                      1
                     SG
 Frequencies --   2532.5471
 Red. masses --      1.0386
 Frc consts  --      3.9246
 IR Inten    --     74.3142

 - Thermochemistry -
 -------------------
 Temperature   298.150 Kelvin.  Pressure   1.00000 Atm.
 Atom     1 has atomic number 16 and mass  31.97207

 Molecular mass:    32.97990 amu.
 Principal axes and moments of inertia in atomic units:
                           1         2         3
     Eigenvalues --     0.00000   6.54516   6.54516
           X            0.00000  -0.00000   1.00000
           Y            0.00000   1.00000   0.00000
           Z            1.00000   0.00000   0.00000
 This molecule is a prolate symmetric top.
 Rotational symmetry number  1.
 Rotational temperature (Kelvin)     13.23326
 Rotational constant (GHZ):         275.736674
 Zero-point vibrational energy      15148.0 (Joules/Mol)
                                    3.62046 (Kcal/Mol)
 Vibrational temperatures:   3643.77
          (Kelvin)

 Zero-point correction=                           0.005770 (Hartree/Particle)
 Thermal correction to Energy=                    0.008130
 Thermal correction to Enthalpy=                  0.009074
 Thermal correction to Gibbs Free Energy=        -0.013149
 Sum of electronic and zero-point Energies=           -398.386889
 Sum of electronic and thermal Energies=              -398.384529
 Sum of electronic and thermal Enthalpies=            -398.383584
 Sum of electronic and thermal Free Energies=         -398.405807

                     E (Thermal)             CV                S
                      KCal/Mol        Cal/Mol-Kelvin    Cal/Mol-Kelvin
 Total                    5.102              4.969             46.772
 Electronic               0.000              0.000              2.183
 Translational            0.889              2.981             36.412
 Rotational               0.592              1.987              8.177
 Vibrational              3.620              0.001              0.000

 Optimization completed.
    -- Stationary point found.
 Normal termination of Gaussian 09 at Wed Aug  3 20:31:05 2016.
