 Gaussian 09, Revision E.01,
 Gaussian 09:  EM64L-G09RevE.01 30-Nov-2015

 ------------------------------
 #p b3lyp/6-311++G(3df,2p) freq
 ------------------------------

 ---------
 b3lyp opt
 ---------
 Symbolic Z-matrix:
 Charge =  0 Multiplicity = 2

                         Standard orientation:
 ---------------------------------------------------------------------
 Center     Atomic      Atomic             Coordinates (Angstroms)
 Number     Number       Type             X           Y           Z
 ---------------------------------------------------------------------
      1         16           0        0.040166   -0.950170    0.000000
      2         16           0        0.040166    1.027278    0.000000
      3          1           0       -1.285315   -1.233721    0.000000
 ---------------------------------------------------------------------

 SCF Done:  E(UB3LYP) =  -797.031056844     A.U. after   12 cycles

 The electronic state is 2-A".
 Alpha  occ. eigenvalues --  -88.91355 -88.87399  -7.99664  -7.95767  -5.95896
 Alpha  occ. eigenvalues --   -5.95600  -5.95526  -5.92337  -5.92056  -5.91075
 Alpha  occ. eigenvalues --   -0.83132  -0.65766  -0.45525  -0.38347  -0.36957
 Alpha  occ. eigenvalues --   -0.26471  -0.25175
 Alpha virt. eigenvalues --   -0.04089  -0.02440   0.02968   0.04444   0.04538
 Alpha virt. eigenvalues --    0.05067   0.06581   0.07706   0.07986   0.09883
 Alpha virt. eigenvalues --    0.13443   0.14924   0.17118   0.17591   0.22506

  Beta  occ. eigenvalues --  -88.91136 -88.86958  -7.99465  -7.95367  -5.95776
  Beta  occ. eigenvalues --   -5.95416  -5.94906  -5.91817  -5.90958  -5.90826
  Beta  occ. eigenvalues --   -0.81830  -0.63210  -0.44862  -0.37430  -0.32933
  Beta  occ. eigenvalues --   -0.25593
  Beta virt. eigenvalues --   -0.14857  -0.03428  -0.02245   0.03078   0.04578
  Beta virt. eigenvalues --    0.04586   0.05270   0.06859   0.07668   0.08333
  Beta virt. eigenvalues --    0.09952   0.13622   0.15960   0.17296   0.19503

 Mulliken charges and spin densities:
               1          2
     1  S   -0.004558   0.309824
     2  S   -0.127870   0.694291
     3  H    0.132428  -0.004114
 Sum of Mulliken charges =  -0.00000   1.00000

 Dipole moment (field-independent basis, Debye):
    X=             -0.8608    Y=             -1.2287    Z=              0.0000  Tot=              1.5003
 Quadrupole moment (field-independent basis, Debye-Ang):
   XX=            -26.2763   YY=            -25.2246   ZZ=            -27.1234
   XY=              1.4380   XZ=              0.0000   YZ=              0.0000

  Exact polarizability:  35.826   2.612  59.257  -0.000  -0.000  31.985
 Approx polarizability:  56.129   4.954 110.272  -0.000  -0.000  49.515

                      1                      2                      3
                     A'                     A'                     A'
 Frequencies --    584.9734               910.1835              2554.6057
 Red. masses --     30.8259                 1.0598                 1.0397
 Frc consts  --      6.2150                 0.5173                 3.9978
 IR Inten    --      0.0252                 2.0367                 6.5578

 - Thermochemistry -
 -------------------
 Temperature   298.150 Kelvin.  Pressure   1.00000 Atm.
 Atom     1 has atomic number 16 and mass  31.97207

 Molecular mass:    64.95197 amu.
 Principal axes and moments of inertia in atomic units:
                           1         2         3
     Eigenvalues --     6.06482 229.12355 235.18837
           X            0.02680   0.99964   0.00000
           Y            0.99964  -0.02680   0.00000
           Z            0.00000  -0.00000   1.00000
 This molecule is an asymmetric top.
 Rotational symmetry number  1.
 Rotational temperatures (Kelvin)     14.28136     0.37802     0.36827
 Rotational constants (GHZ):         297.57558     7.87672     7.67360
 Zero-point vibrational energy      24223.0 (Joules/Mol)
                                    5.78943 (Kcal/Mol)
 Warning -- explicit consideration of   1 degrees of freedom as
           vibrations may cause significant error
 Vibrational temperatures:    841.65  1309.55  3675.50
          (Kelvin)

 Zero-point correction=                           0.009226 (Hartree/Particle)
 Thermal correction to Energy=                    0.012279
 Thermal correction to Enthalpy=                  0.013223
 Thermal correction to Gibbs Free Energy=        -0.015683
 Sum of electronic and zero-point Energies=           -797.021831
 Sum of electronic and thermal Energies=              -797.018778
 Sum of electronic and thermal Enthalpies=            -797.017834
 Sum of electronic and thermal Free Energies=         -797.046740

                     E (Thermal)             CV                S
                      KCal/Mol        Cal/Mol-Kelvin    Cal/Mol-Kelvin
 Total                    7.705              7.513             60.838
 Electronic               0.000              0.000              1.377
 Translational            0.889              2.981             38.432
 Rotational               0.889              2.981             20.419
 Vibrational              5.928              1.551              0.610
 Vibration     1          0.942              1.064              0.476

 Optimization completed.
    -- Stationary point found.
 Normal termination of Gaussian 09 at Wed Aug  3 20:30:05 2016.
