 Gaussian 09, Revision E.01,
 Gaussian 09:  EM64L-G09RevE.01 30-Nov-2015

 ------------------------------
 #p b3lyp/6-311++G(3df,2p) freq
 ------------------------------

 ---------
 b3lyp opt
 ---------
 Symbolic Z-matrix:
 Charge =  0 Multiplicity = 4

                         Standard orientation:
 ---------------------------------------------------------------------
 Center     Atomic      Atomic             Coordinates (Angstroms)
 Number     Number       Type             X           Y           Z
 ---------------------------------------------------------------------
      1         16           0        0.040549   -1.241835    0.000000
      2         16           0        0.040549    1.311596    0.000000
      3          1           0       -1.297565   -1.116177    0.000000
 ---------------------------------------------------------------------

 SCF Done:  E(UB3LYP) =  -796.936948170     A.U. after   16 cycles

 The electronic state is 4-A".
 Alpha  occ. eigenvalues --  -88.91195 -88.88220  -7.99266  -7.96586  -5.96104
 Alpha  occ. eigenvalues --   -5.95334  -5.95206  -5.92771  -5.92748  -5.92570
 Alpha  occ. eigenvalues --   -0.76744  -0.71300  -0.42513  -0.37067  -0.33646
 Alpha  occ. eigenvalues --   -0.33408  -0.28782  -0.22002
 Alpha virt. eigenvalues --   -0.02057   0.02618   0.04099   0.04347   0.04798
 Alpha virt. eigenvalues --    0.06900   0.07086   0.07483   0.10587   0.11960
 Alpha virt. eigenvalues --    0.14920   0.16326   0.16796   0.20373   0.22694

  Beta  occ. eigenvalues --  -88.89883 -88.87525  -7.98073  -7.95947  -5.93830
  Beta  occ. eigenvalues --   -5.93685  -5.93603  -5.92155  -5.91549  -5.91480
  Beta  occ. eigenvalues --   -0.71813  -0.63027  -0.40659  -0.31302  -0.26817
  Beta virt. eigenvalues --   -0.18118  -0.18075  -0.11031  -0.01555   0.03262
  Beta virt. eigenvalues --    0.04430   0.05047   0.05054   0.07427   0.07634
  Beta virt. eigenvalues --    0.07835   0.10967   0.12642   0.17552   0.18772

 Mulliken charges and spin densities:
               1          2
     1  S   -0.145002   0.995493
     2  S    0.021075   2.011368
     3  H    0.123927  -0.006861
 Sum of Mulliken charges =  -0.00000   3.00000

 Dipole moment (field-independent basis, Debye):
    X=             -0.6567    Y=              0.1986    Z=              0.0000  Tot=              0.6860
 Quadrupole moment (field-independent basis, Debye-Ang):
   XX=            -24.1367   YY=            -29.0027   ZZ=            -28.1676
   XY=              0.8354   XZ=              0.0000   YZ=              0.0000

  Exact polarizability:  35.500   3.098 106.519  -0.002   0.010  36.897
 Approx polarizability:  58.413   2.686 237.135  -0.000  -0.000  55.356

                      1                      2                      3
                     A'                     A'                     A'
 Frequencies --    274.8954               475.3272              2678.3954
 Red. masses --     16.4561                 1.0693                 1.0387
 Frc consts  --      0.7327                 0.1423                 4.3903
 IR Inten    --      0.0927                 9.4550                 3.1360

 - Thermochemistry -
 -------------------
 Temperature   298.150 Kelvin.  Pressure   1.00000 Atm.
 Atom     1 has atomic number 16 and mass  31.97207

 Molecular mass:    64.95197 amu.
 Principal axes and moments of inertia in atomic units:
                           1         2         3
     Eigenvalues --     6.26385 376.98393 383.24779
           X            0.01472   0.99989   0.00000
           Y            0.99989  -0.01472   0.00000
           Z            0.00000  -0.00000   1.00000
 This molecule is an asymmetric top.
 Rotational symmetry number  1.
 Rotational temperatures (Kelvin)     13.82756     0.22975     0.22600
 Rotational constants (GHZ):         288.11997     4.78732     4.70907
 Zero-point vibrational energy      20507.7 (Joules/Mol)
                                    4.90146 (Kcal/Mol)
 Warning -- explicit consideration of   2 degrees of freedom as
           vibrations may cause significant error
 Vibrational temperatures:    395.51   683.89  3853.61
          (Kelvin)

 Zero-point correction=                           0.007811 (Hartree/Particle)
 Thermal correction to Energy=                    0.011339
 Thermal correction to Enthalpy=                  0.012283
 Thermal correction to Gibbs Free Energy=        -0.018555
 Sum of electronic and zero-point Energies=           -796.929137
 Sum of electronic and thermal Energies=              -796.925609
 Sum of electronic and thermal Enthalpies=            -796.924665
 Sum of electronic and thermal Free Energies=         -796.955504

                     E (Thermal)             CV                S
                      KCal/Mol        Cal/Mol-Kelvin    Cal/Mol-Kelvin
 Total                    7.115              8.987             64.906
 Electronic               0.000              0.000              2.755
 Translational            0.889              2.981             38.432
 Rotational               0.889              2.981             21.431
 Vibrational              5.338              3.025              2.288
 Vibration     1          0.677              1.720              1.565
 Vibration     2          0.832              1.305              0.723

 Optimization completed.
    -- Stationary point found.
 Normal termination of Gaussian 09 at Wed Aug  3 20:30:35 2016.
