 Gaussian 09, Revision E.01,
 Gaussian 09:  EM64L-G09RevE.01 30-Nov-2015

 ------------------------------
 #p b3lyp/6-311++G(3df,2p) freq
 ------------------------------

 ---------
 b3lyp opt
 ---------
 Symbolic Z-matrix:
 Charge =  1 Multiplicity = 3

                         Standard orientation:
 ---------------------------------------------------------------------
 Center     Atomic      Atomic             Coordinates (Angstroms)
 Number     Number       Type             X           Y           Z
 ---------------------------------------------------------------------
      1         16           0        0.041143   -0.953009    0.000000
      2         16           0        0.041143    1.020716    0.000000
      3          1           0       -1.316568   -1.083319    0.000000
 ---------------------------------------------------------------------

 SCF Done:  E(UB3LYP) =  -796.679215154     A.U. after   13 cycles

 The electronic state is 3-A".
 Alpha  occ. eigenvalues --  -89.21125 -89.18981  -8.29031  -8.27213  -6.25758
 Alpha  occ. eigenvalues --   -6.25037  -6.24935  -6.23385  -6.23264  -6.23102
 Alpha  occ. eigenvalues --   -1.12434  -0.94840  -0.73032  -0.66658  -0.64353
 Alpha  occ. eigenvalues --   -0.58635  -0.52362
 Alpha virt. eigenvalues --   -0.29730  -0.24947  -0.16071  -0.12557  -0.11467
 Alpha virt. eigenvalues --   -0.10832  -0.10424  -0.10028  -0.09121  -0.06856
 Alpha virt. eigenvalues --   -0.06631  -0.06157  -0.04675  -0.01862  -0.00588

  Beta  occ. eigenvalues --  -89.20130 -89.18623  -8.28132  -8.26881  -6.24402
  Beta  occ. eigenvalues --   -6.23650  -6.23468  -6.23216  -6.22830  -6.22203
  Beta  occ. eigenvalues --   -1.09340  -0.89458  -0.70565  -0.64094  -0.59058
  Beta virt. eigenvalues --   -0.44769  -0.41121  -0.27964  -0.23698  -0.15255
  Beta virt. eigenvalues --   -0.12002  -0.10986  -0.10396  -0.09874  -0.07762
  Beta virt. eigenvalues --   -0.07305  -0.06316  -0.05645  -0.04365  -0.03870

 Mulliken charges and spin densities:
               1          2
     1  S    0.299605   0.482869
     2  S    0.475730   1.454743
     3  H    0.224664   0.062388
 Sum of Mulliken charges =   1.00000   2.00000

 Dipole moment (field-independent basis, Debye):
    X=             -1.0618    Y=             -0.2727    Z=              0.0000  Tot=              1.0962
 Quadrupole moment (field-independent basis, Debye-Ang):
   XX=            -19.6984   YY=            -15.1530   ZZ=            -23.6960
   XY=              1.7286   XZ=              0.0000   YZ=              0.0000

  Exact polarizability:  26.566   2.312  48.896  -0.000   0.000  24.386
 Approx polarizability:  44.003   3.527 101.526  -0.000  -0.000  37.378

                      1                      2                      3
                     A'                     A'                     A'
 Frequencies --    592.5138               766.5200              2528.6264
 Red. masses --     30.5895                 1.0572                 1.0385
 Frc consts  --      6.3273                 0.3660                 3.9123
 IR Inten    --      5.7936                17.8574                88.9378

 - Thermochemistry -
 -------------------
 Temperature   298.150 Kelvin.  Pressure   1.00000 Atm.
 Atom     1 has atomic number 16 and mass  31.97207

 Molecular mass:    64.95197 amu.
 Principal axes and moments of inertia in atomic units:
                           1         2         3
     Eigenvalues --     6.40036 226.94142 233.34177
           X            0.02438   0.99970   0.00000
           Y            0.99970  -0.02438   0.00000
           Z            0.00000  -0.00000   1.00000
 This molecule is an asymmetric top.
 Rotational symmetry number  1.
 Rotational temperatures (Kelvin)     13.53265     0.38166     0.37119
 Rotational constants (GHZ):         281.97510     7.95245     7.73433
 Zero-point vibrational energy      23253.4 (Joules/Mol)
                                    5.55769 (Kcal/Mol)
 Warning -- explicit consideration of   1 degrees of freedom as
           vibrations may cause significant error
 Vibrational temperatures:    852.49  1102.85  3638.12
          (Kelvin)

 Zero-point correction=                           0.008857 (Hartree/Particle)
 Thermal correction to Energy=                    0.011942
 Thermal correction to Enthalpy=                  0.012886
 Thermal correction to Gibbs Free Energy=        -0.016462
 Sum of electronic and zero-point Energies=           -796.670358
 Sum of electronic and thermal Energies=              -796.667273
 Sum of electronic and thermal Enthalpies=            -796.666329
 Sum of electronic and thermal Free Energies=         -796.695677

                     E (Thermal)             CV                S
                      KCal/Mol        Cal/Mol-Kelvin    Cal/Mol-Kelvin
 Total                    7.494              7.718             61.769
 Electronic               0.000              0.000              2.183
 Translational            0.889              2.981             38.432
 Rotational               0.889              2.981             20.455
 Vibrational              5.716              1.757              0.699
 Vibration     1          0.950              1.048              0.463

 Optimization completed.
    -- Stationary point found.
 Normal termination of Gaussian 09 at Wed Aug  3 20:30:33 2016.
