 Gaussian 09, Revision E.01,
 Gaussian 09:  EM64L-G09RevE.01 30-Nov-2015

 ------------------------------
 #p b3lyp/6-311++G(3df,2p) freq
 ------------------------------

 ---------
 b3lyp opt
 ---------
 Symbolic Z-matrix:
 Charge =  2 Multiplicity = 2

                         Standard orientation:
 ---------------------------------------------------------------------
 Center     Atomic      Atomic             Coordinates (Angstroms)
 Number     Number       Type             X           Y           Z
 ---------------------------------------------------------------------
      1         16           0        0.042334   -0.914735    0.000000
      2         16           0        0.042334    0.984100    0.000000
      3          1           0       -1.354679   -1.109828    0.000000
 ---------------------------------------------------------------------

 SCF Done:  E(UB3LYP) =  -796.049926063     A.U. after   16 cycles

 The electronic state is 2-A'.
 Alpha  occ. eigenvalues --  -89.55485 -89.53455  -8.62800  -8.61124  -6.59384
 Alpha  occ. eigenvalues --   -6.58994  -6.58569  -6.57218  -6.57167  -6.56862
 Alpha  occ. eigenvalues --   -1.44344  -1.23027  -1.02425  -0.96351  -0.92935
 Alpha  occ. eigenvalues --   -0.87003
 Alpha virt. eigenvalues --   -0.73527  -0.55696  -0.51720  -0.39539  -0.36588
 Alpha virt. eigenvalues --   -0.36363  -0.34451  -0.31649  -0.29188  -0.28004
 Alpha virt. eigenvalues --   -0.27311  -0.26159  -0.23286  -0.23021  -0.21905

  Beta  occ. eigenvalues --  -89.54740 -89.53541  -8.62123  -8.61194  -6.58289
  Beta  occ. eigenvalues --   -6.58161  -6.57562  -6.57334  -6.57251  -6.56803
  Beta  occ. eigenvalues --   -1.42757  -1.20107  -1.00300  -0.94479  -0.92334
  Beta virt. eigenvalues --   -0.73687  -0.72653  -0.54695  -0.50474  -0.39129
  Beta virt. eigenvalues --   -0.35659  -0.34702  -0.34112  -0.30517  -0.28490
  Beta virt. eigenvalues --   -0.27432  -0.27240  -0.24151  -0.22155  -0.22104

 Mulliken charges and spin densities:
               1          2
     1  S    0.729735  -0.136273
     2  S    0.943588   1.041615
     3  H    0.326677   0.094658
 Sum of Mulliken charges =   2.00000   1.00000

 Dipole moment (field-independent basis, Debye):
    X=             -1.4417    Y=             -0.5397    Z=              0.0000  Tot=              1.5394
 Quadrupole moment (field-independent basis, Debye-Ang):
   XX=            -16.2600   YY=             -6.4696   ZZ=            -19.0021
   XY=              2.4906   XZ=              0.0000   YZ=              0.0000

  Exact polarizability:  22.100   2.543  39.482  -0.000  -0.000  18.809
 Approx polarizability:  35.861   4.478 106.485  -0.000  -0.000  31.270

                      1                      2                      3
                     A'                     A'                     A'
 Frequencies --    627.4013               755.6343              2180.2448
 Red. masses --     18.8687                 1.0862                 1.0395
 Frc consts  --      4.3761                 0.3654                 2.9114
 IR Inten    --     13.0398                39.1542               312.8375

 - Thermochemistry -
 -------------------
 Temperature   298.150 Kelvin.  Pressure   1.00000 Atm.
 Atom     1 has atomic number 16 and mass  31.97207

 Molecular mass:    64.95197 amu.
 Principal axes and moments of inertia in atomic units:
                           1         2         3
     Eigenvalues --     6.75746 210.63073 217.38819
           X            0.02780   0.99961   0.00000
           Y            0.99961  -0.02780   0.00000
           Z            0.00000  -0.00000   1.00000
 This molecule is an asymmetric top.
 Rotational symmetry number  1.
 Rotational temperatures (Kelvin)     12.81751     0.41121     0.39843
 Rotational constants (GHZ):         267.07395     8.56827     8.30193
 Zero-point vibrational energy      21313.2 (Joules/Mol)
                                    5.09397 (Kcal/Mol)
 Vibrational temperatures:    902.69  1087.19  3136.88
          (Kelvin)

 Zero-point correction=                           0.008118 (Hartree/Particle)
 Thermal correction to Energy=                    0.011188
 Thermal correction to Enthalpy=                  0.012132
 Thermal correction to Gibbs Free Energy=        -0.016768
 Sum of electronic and zero-point Energies=           -796.041808
 Sum of electronic and thermal Energies=              -796.038738
 Sum of electronic and thermal Enthalpies=            -796.037794
 Sum of electronic and thermal Free Energies=         -796.066694

                     E (Thermal)             CV                S
                      KCal/Mol        Cal/Mol-Kelvin    Cal/Mol-Kelvin
 Total                    7.021              7.668             60.826
 Electronic               0.000              0.000              1.377
 Translational            0.889              2.981             38.432
 Rotational               0.889              2.981             20.364
 Vibrational              5.243              1.707              0.652

 Optimization completed.
    -- Stationary point found.
 Normal termination of Gaussian 09 at Wed Aug  3 20:30:57 2016.
