 Gaussian 09, Revision E.01,
 Gaussian 09:  EM64L-G09RevE.01 30-Nov-2015

 ------------------------------
 #p b3lyp/6-311++G(3df,2p) freq
 ------------------------------

 ---------
 b3lyp opt
 ---------
 Symbolic Z-matrix:
 Charge =  0 Multiplicity = 4

                         Standard orientation:
 ---------------------------------------------------------------------
 Center     Atomic      Atomic             Coordinates (Angstroms)
 Number     Number       Type             X           Y           Z
 ---------------------------------------------------------------------
      1         16           0        0.001664    0.951420   -0.000000
      2         16           0        0.001664   -1.104442    0.000000
      3          1           0       -0.053261    2.448356   -0.000000
 ---------------------------------------------------------------------

 SCF Done:  E(UB3LYP) =  -796.933215849     A.U. after   13 cycles

 The electronic state is 4-A".
 Alpha  occ. eigenvalues --  -88.91147 -88.90579  -7.99229  -7.98779  -5.95340
 Alpha  occ. eigenvalues --   -5.95307  -5.95305  -5.95137  -5.94922  -5.94921
 Alpha  occ. eigenvalues --   -0.81987  -0.68875  -0.47298  -0.36889  -0.36887
 Alpha  occ. eigenvalues --   -0.27212  -0.27172  -0.24711
 Alpha virt. eigenvalues --   -0.00747   0.01837   0.03096   0.04443   0.04447
 Alpha virt. eigenvalues --    0.07474   0.07485   0.09038   0.12015   0.15619
 Alpha virt. eigenvalues --    0.15688   0.15739   0.15788   0.18761   0.22873

  Beta  occ. eigenvalues --  -88.90396 -88.89518  -7.98448  -7.97819  -5.94982
  Beta  occ. eigenvalues --   -5.93993  -5.93993  -5.93718  -5.93399  -5.93399
  Beta  occ. eigenvalues --   -0.77181  -0.61851  -0.42223  -0.30989  -0.30985
  Beta virt. eigenvalues --   -0.15744  -0.15716  -0.12782  -0.00116   0.03424
  Beta virt. eigenvalues --    0.03821   0.04849   0.04852   0.08086   0.08094
  Beta virt. eigenvalues --    0.10679   0.13182   0.18079   0.18304   0.18356

 Mulliken charges and spin densities:
               1          2
     1  S   -0.019271   1.031418
     2  S   -0.040703   1.536137
     3  H    0.059974   0.432445
 Sum of Mulliken charges =  -0.00000   3.00000

 Dipole moment (field-independent basis, Debye):
    X=             -0.0326    Y=              0.4221    Z=              0.0000  Tot=              0.4234
 Quadrupole moment (field-independent basis, Debye-Ang):
   XX=            -27.4325   YY=            -24.6835   ZZ=            -27.4361
   XY=             -0.0192   XZ=             -0.0000   YZ=              0.0000

  Exact polarizability:  32.719  -0.430  88.839   0.000   0.001  32.710
 Approx polarizability:  50.875  -0.554 200.357   0.000  -0.000  50.859

                      1                      2                      3
                     A'                     A'                     A'
 Frequencies --    279.4091               524.2557              1400.7373
 Red. masses --     24.0715                 1.1175                 1.0325
 Frc consts  --      1.1072                 0.1810                 1.1936
 IR Inten    --     20.2659                15.9656                99.4912

 - Thermochemistry -
 -------------------
 Temperature   298.150 Kelvin.  Pressure   1.00000 Atm.
 Atom     1 has atomic number 16 and mass  31.97207

 Molecular mass:    64.95197 amu.
 Principal axes and moments of inertia in atomic units:
                           1         2         3
     Eigenvalues --     0.00977 263.87132 263.88109
           X           -0.00186   1.00000   0.00000
           Y            1.00000   0.00186   0.00000
           Z           -0.00000  -0.00000   1.00000
 This molecule is an asymmetric top.
 Rotational symmetry number  1.
 Rotational temperatures (Kelvin)   8861.79121     0.32824     0.32823
 Rotational constants (GHZ):      184649.98849     6.83947     6.83922
 Zero-point vibrational energy      13185.3 (Joules/Mol)
                                    3.15135 (Kcal/Mol)
 Warning -- explicit consideration of   2 degrees of freedom as
           vibrations may cause significant error
 Vibrational temperatures:    402.01   754.29  2015.35
          (Kelvin)

 Zero-point correction=                           0.005022 (Hartree/Particle)
 Thermal correction to Energy=                    0.008515
 Thermal correction to Enthalpy=                  0.009459
 Thermal correction to Gibbs Free Energy=        -0.017921
 Sum of electronic and zero-point Energies=           -796.928194
 Sum of electronic and thermal Energies=              -796.924701
 Sum of electronic and thermal Enthalpies=            -796.923756
 Sum of electronic and thermal Free Energies=         -796.951136

                     E (Thermal)             CV                S
                      KCal/Mol        Cal/Mol-Kelvin    Cal/Mol-Kelvin
 Total                    5.343              8.975             57.626
 Electronic               0.000              0.000              2.755
 Translational            0.889              2.981             38.432
 Rotational               0.889              2.981             14.284
 Vibrational              3.566              3.014              2.155
 Vibration     1          0.680              1.712              1.537
 Vibration     2          0.879              1.196              0.600

 Normal termination of Gaussian 09 at Wed Aug  3 20:30:34 2016.
