 Gaussian 09, Revision E.01,
 Gaussian 09:  EM64L-G09RevE.01 30-Nov-2015

 ------------------------------
 #p b3lyp/6-311++G(3df,2p) freq
 ------------------------------

 ---------
 b3lyp opt
 ---------
 Symbolic Z-matrix:
 Charge =  1 Multiplicity = 1

                         Standard orientation:
 ---------------------------------------------------------------------
 Center     Atomic      Atomic             Coordinates (Angstroms)
 Number     Number       Type             X           Y           Z
 ---------------------------------------------------------------------
      1         16           0        0.040490   -0.902372    0.000000
      2         16           0        0.040490    0.978245    0.000000
      3          1           0       -1.295678   -1.213957    0.000000
 ---------------------------------------------------------------------

 SCF Done:  E(RB3LYP) =  -796.684395624     A.U. after   11 cycles

 The electronic state is 1-A'.
 Alpha  occ. eigenvalues --  -89.22295 -89.18662  -8.30293  -8.26779  -6.26439
 Alpha  occ. eigenvalues --   -6.26387  -6.25957  -6.23380  -6.22925  -6.21886
 Alpha  occ. eigenvalues --   -1.13345  -0.92045  -0.72736  -0.66042  -0.63911
 Alpha  occ. eigenvalues --   -0.53038
 Alpha virt. eigenvalues --   -0.44322  -0.26387  -0.24556  -0.16923  -0.12254
 Alpha virt. eigenvalues --   -0.12143  -0.10976  -0.10113  -0.09761  -0.07928
 Alpha virt. eigenvalues --   -0.06406  -0.06023  -0.05951  -0.03597  -0.01153

 Mulliken charges:
               1
     1  S    0.407545
     2  S    0.385874
     3  H    0.206581
 Sum of Mulliken charges =   1.00000

 Dipole moment (field-independent basis, Debye):
    X=             -1.0610    Y=             -1.0670    Z=              0.0000  Tot=              1.5048
 Quadrupole moment (field-independent basis, Debye-Ang):
   XX=            -22.0495   YY=            -15.1136   ZZ=            -21.4344
   XY=              1.9575   XZ=              0.0000   YZ=              0.0000

  Exact polarizability:  27.354   2.859  45.879   0.000   0.000  22.947
 Approx polarizability:  42.726   5.736 110.323  -0.000  -0.000  39.464

                      1                      2                      3
                     A'                     A'                     A'
 Frequencies --    709.2381               957.3445              2469.1588
 Red. masses --     29.2388                 1.0663                 1.0402
 Frc consts  --      8.6655                 0.5758                 3.7365
 IR Inten    --      0.1313                 1.1912                20.2058

 - Thermochemistry -
 -------------------
 Temperature   298.150 Kelvin.  Pressure   1.00000 Atm.
 Atom     1 has atomic number 16 and mass  31.97207

 Molecular mass:    64.95197 amu.
 Principal axes and moments of inertia in atomic units:
                           1         2         3
     Eigenvalues --     6.15127 207.62877 213.78004
           X            0.02943   0.99957   0.00000
           Y            0.99957  -0.02943   0.00000
           Z            0.00000  -0.00000   1.00000
 This molecule is an asymmetric top.
 Rotational symmetry number  1.
 Rotational temperatures (Kelvin)     14.08063     0.41716     0.40515
 Rotational constants (GHZ):         293.39309     8.69215     8.44205
 Zero-point vibrational energy      24737.2 (Joules/Mol)
                                    5.91234 (Kcal/Mol)
 Vibrational temperatures:   1020.43  1377.40  3552.56
          (Kelvin)

 Zero-point correction=                           0.009422 (Hartree/Particle)
 Thermal correction to Energy=                    0.012407
 Thermal correction to Enthalpy=                  0.013351
 Thermal correction to Gibbs Free Energy=        -0.014719
 Sum of electronic and zero-point Energies=           -796.674974
 Sum of electronic and thermal Energies=              -796.671989
 Sum of electronic and thermal Enthalpies=            -796.671044
 Sum of electronic and thermal Free Energies=         -796.699115

                     E (Thermal)             CV                S
                      KCal/Mol        Cal/Mol-Kelvin    Cal/Mol-Kelvin
 Total                    7.785              7.201             59.079
 Electronic               0.000              0.000              0.000
 Translational            0.889              2.981             38.432
 Rotational               0.889              2.981             20.240
 Vibrational              6.008              1.240              0.407

 Optimization completed.
    -- Stationary point found.
 Normal termination of Gaussian 09 at Wed Aug  3 20:30:29 2016.
