 Gaussian 09, Revision E.01,
 Gaussian 09:  EM64L-G09RevE.01 30-Nov-2015

 ------------------------------
 #p b3lyp/6-311++G(3df,2p) freq
 ------------------------------

 ---------
 b3lyp opt
 ---------
 Symbolic Z-matrix:
 Charge =  2 Multiplicity = 4

                         Standard orientation:
 ---------------------------------------------------------------------
 Center     Atomic      Atomic             Coordinates (Angstroms)
 Number     Number       Type             X           Y           Z
 ---------------------------------------------------------------------
      1         16           0        0.041978   -1.098830    0.000000
      2         16           0        0.041978    1.173789    0.000000
      3          1           0       -1.343291   -1.199357    0.000000
 ---------------------------------------------------------------------

 SCF Done:  E(UB3LYP) =  -796.004194960     A.U. after   14 cycles

 The electronic state is 4-A'.
 Alpha  occ. eigenvalues --  -89.54070 -89.51281  -8.61238  -8.58808  -6.57859
 Alpha  occ. eigenvalues --   -6.57818  -6.57080  -6.55649  -6.54861  -6.54358
 Alpha  occ. eigenvalues --   -1.37017  -1.26222  -0.97858  -0.92542  -0.91928
 Alpha  occ. eigenvalues --   -0.87445  -0.84662
 Alpha virt. eigenvalues --   -0.65212  -0.48795  -0.37165  -0.34889  -0.34777
 Alpha virt. eigenvalues --   -0.33987  -0.30584  -0.29336  -0.27295  -0.27216
 Alpha virt. eigenvalues --   -0.26996  -0.25519  -0.23484  -0.23066  -0.19654

  Beta  occ. eigenvalues --  -89.52691 -89.50603  -8.59993  -8.58182  -6.56301
  Beta  occ. eigenvalues --   -6.55308  -6.55299  -6.54565  -6.53942  -6.53486
  Beta  occ. eigenvalues --   -1.31029  -1.18229  -0.95536  -0.89823
  Beta virt. eigenvalues --   -0.75464  -0.71220  -0.67632  -0.62255  -0.47306
  Beta virt. eigenvalues --   -0.35247  -0.32624  -0.30604  -0.29854  -0.29423
  Beta virt. eigenvalues --   -0.27262  -0.26610  -0.26087  -0.23027  -0.22206

 Mulliken charges and spin densities:
               1          2
     1  S    0.740480   0.993095
     2  S    0.965868   1.998586
     3  H    0.293652   0.008319
 Sum of Mulliken charges =   2.00000   3.00000

 Dipole moment (field-independent basis, Debye):
    X=             -1.2387    Y=             -0.2229    Z=              0.0000  Tot=              1.2586
 Quadrupole moment (field-independent basis, Debye-Ang):
   XX=            -16.7728   YY=             -3.3821   ZZ=            -19.1141
   XY=              2.4018   XZ=              0.0000   YZ=              0.0000

  Exact polarizability:  23.176   2.024  44.177   0.000  -0.000  19.619
 Approx polarizability:  36.535   2.491  86.960  -0.000  -0.000  29.663

                      1                      2                      3
                     A'                     A'                     A'
 Frequencies --    373.5904               753.6878              2375.2011
 Red. masses --     23.6073                 1.0599                 1.0391
 Frc consts  --      1.9413                 0.3547                 3.4538
 IR Inten    --      0.9474                24.2410               220.4684

 - Thermochemistry -
 -------------------
 Temperature   298.150 Kelvin.  Pressure   1.00000 Atm.
 Atom     1 has atomic number 16 and mass  31.97207

 Molecular mass:    64.95197 amu.
 Principal axes and moments of inertia in atomic units:
                           1         2         3
     Eigenvalues --     6.67370 300.38937 307.06307
           X            0.02067   0.99979   0.00000
           Y            0.99979  -0.02067   0.00000
           Z            0.00000  -0.00000   1.00000
 This molecule is an asymmetric top.
 Rotational symmetry number  1.
 Rotational temperatures (Kelvin)     12.97838     0.28834     0.28207
 Rotational constants (GHZ):         270.42586     6.00801     5.87743
 Zero-point vibrational energy      20949.5 (Joules/Mol)
                                    5.00705 (Kcal/Mol)
 Warning -- explicit consideration of   1 degrees of freedom as
           vibrations may cause significant error
 Vibrational temperatures:    537.51  1084.39  3417.38
          (Kelvin)

 Zero-point correction=                           0.007979 (Hartree/Particle)
 Thermal correction to Energy=                    0.011241
 Thermal correction to Enthalpy=                  0.012185
 Thermal correction to Gibbs Free Energy=        -0.018009
 Sum of electronic and zero-point Energies=           -795.996216
 Sum of electronic and thermal Energies=              -795.992954
 Sum of electronic and thermal Enthalpies=            -795.992010
 Sum of electronic and thermal Free Energies=         -796.022204

                     E (Thermal)             CV                S
                      KCal/Mol        Cal/Mol-Kelvin    Cal/Mol-Kelvin
 Total                    7.054              8.221             63.548
 Electronic               0.000              0.000              2.755
 Translational            0.889              2.981             38.432
 Rotational               0.889              2.981             21.048
 Vibrational              5.276              2.259              1.314
 Vibration     1          0.745              1.526              1.065

 Optimization completed.
    -- Stationary point found.
 Normal termination of Gaussian 09 at Wed Aug  3 20:30:56 2016.
