 Gaussian 09, Revision E.01,
 Gaussian 09:  EM64L-G09RevE.01 30-Nov-2015

 ------------------------------
 #p b3lyp/6-311++G(3df,2p) freq
 ------------------------------

 ---------
 b3lyp opt
 ---------
 Symbolic Z-matrix:
 Charge =  0 Multiplicity = 1

                         Standard orientation:
 ---------------------------------------------------------------------
 Center     Atomic      Atomic             Coordinates (Angstroms)
 Number     Number       Type             X           Y           Z
 ---------------------------------------------------------------------
      1         16           0        0.000000    0.000000    0.000000
 ---------------------------------------------------------------------

 SCF Done:  E(RB3LYP) =  -398.073198125     A.U. after    7 cycles

 Unable to determine electronic state:  an orbital has unidentified symmetry.
 Alpha  occ. eigenvalues --  -88.92014  -8.00017  -5.97594  -5.95178  -5.95178
 Alpha  occ. eigenvalues --   -0.69071  -0.28462  -0.28462
 Alpha virt. eigenvalues --   -0.24683   0.01545   0.05265   0.05584   0.05584
 Alpha virt. eigenvalues --    0.20635   0.20672   0.20672   0.22797   0.22797
 Alpha virt. eigenvalues --    0.31006   0.32405   0.32405   0.55500   0.93474

 Mulliken charges:
               1
     1  S    0.000000
 Sum of Mulliken charges =   0.00000

 Dipole moment (field-independent basis, Debye):
    X=              0.0000    Y=              0.0000    Z=              0.0000  Tot=              0.0000
 Quadrupole moment (field-independent basis, Debye-Ang):
   XX=            -15.1630   YY=            -15.1630   ZZ=             -9.8714
   XY=              0.0000   XZ=              0.0000   YZ=             -0.0000

  Exact polarizability:  20.758  -0.000  20.758  -0.000  -0.000  15.098
 Approx polarizability:  26.022  -0.000  26.022  -0.000  -0.000  27.123

 - Thermochemistry -
 -------------------
 Temperature   298.150 Kelvin.  Pressure   1.00000 Atm.
 Atom     1 has atomic number 16 and mass  31.97207
 Molecular mass:    31.97207 amu.
 Zero-point vibrational energy          0.0 (Joules/Mol)
                                    0.00000 (Kcal/Mol)
 Vibrational temperatures:
          (Kelvin)

 Zero-point correction=                           0.000000 (Hartree/Particle)
 Thermal correction to Energy=                    0.001416
 Thermal correction to Enthalpy=                  0.002360
 Thermal correction to Gibbs Free Energy=        -0.014896
 Sum of electronic and zero-point Energies=           -398.073198
 Sum of electronic and thermal Energies=              -398.071782
 Sum of electronic and thermal Enthalpies=            -398.070838
 Sum of electronic and thermal Free Energies=         -398.088094

                     E (Thermal)             CV                S
                      KCal/Mol        Cal/Mol-Kelvin    Cal/Mol-Kelvin
 Total                    0.889              2.981             36.319
 Electronic               0.000              0.000              0.000
 Translational            0.889              2.981             36.319
 Rotational               0.000              0.000              0.000
 Vibrational              0.000              0.000              0.000

 Optimization completed.
    -- Stationary point found.
 Normal termination of Gaussian 09 at Wed Aug  3 20:31:04 2016.
