 Gaussian 09, Revision E.01,
 Gaussian 09:  EM64L-G09RevE.01 30-Nov-2015

 ------------------------------
 #p b3lyp/6-311++G(3df,2p) freq
 ------------------------------

 ---------
 b3lyp opt
 ---------
 Symbolic Z-matrix:
 Charge =  0 Multiplicity = 3

                         Standard orientation:
 ---------------------------------------------------------------------
 Center     Atomic      Atomic             Coordinates (Angstroms)
 Number     Number       Type             X           Y           Z
 ---------------------------------------------------------------------
      1         16           0        0.000000    0.000000    0.000000
 ---------------------------------------------------------------------

 SCF Done:  E(UB3LYP) =  -398.134498118     A.U. after    9 cycles

 Unable to determine electronic state:  an orbital has unidentified symmetry.
 Alpha  occ. eigenvalues --  -88.90830  -7.98952  -5.95845  -5.95845  -5.93965
 Alpha  occ. eigenvalues --   -0.72766  -0.33687  -0.33687  -0.28967
 Alpha virt. eigenvalues --    0.01491   0.05284   0.05284   0.05652   0.18526
 Alpha virt. eigenvalues --    0.18526   0.20759   0.20759   0.21612   0.30845
 Alpha virt. eigenvalues --    0.30845   0.32439   0.54531   0.91380   0.91380

  Beta  occ. eigenvalues --  -88.89639  -7.97871  -5.93633  -5.93633  -5.93302
  Beta  occ. eigenvalues --   -0.63464  -0.26468
  Beta virt. eigenvalues --   -0.17971  -0.17971   0.02056   0.05428   0.05844
  Beta virt. eigenvalues --    0.05844   0.23690   0.23690   0.23953   0.24504
  Beta virt. eigenvalues --    0.24507   0.32811   0.33426   0.33426   0.57707

 Mulliken charges and spin densities:
               1          2
     1  S    0.000000   2.000000
 Sum of Mulliken charges =   0.00000   2.00000

 Dipole moment (field-independent basis, Debye):
    X=              0.0000    Y=              0.0000    Z=              0.0000  Tot=              0.0000
 Quadrupole moment (field-independent basis, Debye-Ang):
   XX=            -12.1902   YY=            -15.0922   ZZ=            -12.1902
   XY=              0.0000   XZ=              0.0000   YZ=             -0.0000

  Exact polarizability:  16.856  -0.000  21.018   0.000   0.000  16.856
 Approx polarizability:  24.122  -0.000  25.579  -0.000  -0.000  24.122

 - Thermochemistry -
 -------------------
 Temperature   298.150 Kelvin.  Pressure   1.00000 Atm.
 Atom     1 has atomic number 16 and mass  31.97207
 Molecular mass:    31.97207 amu.
 Zero-point vibrational energy          0.0 (Joules/Mol)
                                    0.00000 (Kcal/Mol)
 Vibrational temperatures:
          (Kelvin)

 Zero-point correction=                           0.000000 (Hartree/Particle)
 Thermal correction to Energy=                    0.001416
 Thermal correction to Enthalpy=                  0.002360
 Thermal correction to Gibbs Free Energy=        -0.015933
 Sum of electronic and zero-point Energies=           -398.134498
 Sum of electronic and thermal Energies=              -398.133082
 Sum of electronic and thermal Enthalpies=            -398.132138
 Sum of electronic and thermal Free Energies=         -398.150431

                     E (Thermal)             CV                S
                      KCal/Mol        Cal/Mol-Kelvin    Cal/Mol-Kelvin
 Total                    0.889              2.981             38.502
 Electronic               0.000              0.000              2.183
 Translational            0.889              2.981             36.319
 Rotational               0.000              0.000              0.000
 Vibrational              0.000              0.000              0.000

 Optimization completed.
    -- Stationary point found.
 Normal termination of Gaussian 09 at Wed Aug  3 20:31:04 2016.
