 Gaussian 09, Revision E.01,
 Gaussian 09:  EM64L-G09RevE.01 30-Nov-2015

 ------------------------------
 #p b3lyp/6-311++G(3df,2p) freq
 ------------------------------

 ---------
 b3lyp opt
 ---------
 Symbolic Z-matrix:
 Charge =  2 Multiplicity = 1

                         Standard orientation:
 ---------------------------------------------------------------------
 Center     Atomic      Atomic             Coordinates (Angstroms)
 Number     Number       Type             X           Y           Z
 ---------------------------------------------------------------------
      1         16           0        0.000000    0.000000    0.000000
 ---------------------------------------------------------------------

 SCF Done:  E(RB3LYP) =  -396.818887241     A.U. after    7 cycles

 Unable to determine electronic state:  an orbital has unidentified symmetry.
 Alpha  occ. eigenvalues --  -89.89155  -8.94442  -6.91600  -6.91600  -6.88490
 Alpha  occ. eigenvalues --   -1.49276  -1.04266
 Alpha virt. eigenvalues --   -0.99680  -0.99680  -0.44708  -0.44708  -0.43022
 Alpha virt. eigenvalues --   -0.43022  -0.41840  -0.41287  -0.32216  -0.32216
 Alpha virt. eigenvalues --   -0.31589  -0.11502  -0.11502  -0.10716  -0.02637

 Mulliken charges:
               1
     1  S    2.000000
 Sum of Mulliken charges =   2.00000

 Dipole moment (field-independent basis, Debye):
    X=              0.0000    Y=              0.0000    Z=              0.0000  Tot=              0.0000
 Quadrupole moment (field-independent basis, Debye-Ang):
   XX=             -5.5947   YY=             -9.2974   ZZ=             -5.5947
   XY=              0.0000   XZ=             -0.0000   YZ=             -0.0000

  Exact polarizability:   7.582   0.000   7.099  -0.000  -0.000   7.582
 Approx polarizability:  12.373  -0.000   7.946  -0.000  -0.000  12.373

 - Thermochemistry -
 -------------------
 Temperature   298.150 Kelvin.  Pressure   1.00000 Atm.
 Atom     1 has atomic number 16 and mass  31.97207
 Molecular mass:    31.97207 amu.
 Zero-point vibrational energy          0.0 (Joules/Mol)
                                    0.00000 (Kcal/Mol)
 Vibrational temperatures:
          (Kelvin)

 Zero-point correction=                           0.000000 (Hartree/Particle)
 Thermal correction to Energy=                    0.001416
 Thermal correction to Enthalpy=                  0.002360
 Thermal correction to Gibbs Free Energy=        -0.014896
 Sum of electronic and zero-point Energies=           -396.818887
 Sum of electronic and thermal Energies=              -396.817471
 Sum of electronic and thermal Enthalpies=            -396.816527
 Sum of electronic and thermal Free Energies=         -396.833783

                     E (Thermal)             CV                S
                      KCal/Mol        Cal/Mol-Kelvin    Cal/Mol-Kelvin
 Total                    0.889              2.981             36.319
 Electronic               0.000              0.000              0.000
 Translational            0.889              2.981             36.319
 Rotational               0.000              0.000              0.000
 Vibrational              0.000              0.000              0.000

 Optimization completed.
    -- Stationary point found.
 Normal termination of Gaussian 09 at Wed Aug  3 20:31:13 2016.
