 Gaussian 09, Revision E.01,
 Gaussian 09:  EM64L-G09RevE.01 30-Nov-2015

 ------------------------------
 #p b3lyp/6-311++G(3df,2p) freq
 ------------------------------

 ---------
 b3lyp opt
 ---------
 Symbolic Z-matrix:
 Charge =  2 Multiplicity = 3

                         Standard orientation:
 ---------------------------------------------------------------------
 Center     Atomic      Atomic             Coordinates (Angstroms)
 Number     Number       Type             X           Y           Z
 ---------------------------------------------------------------------
      1         16           0        0.000000    0.000000    0.000000
 ---------------------------------------------------------------------

 SCF Done:  E(UB3LYP) =  -396.892566456     A.U. after    8 cycles

 Unable to determine electronic state:  an orbital has unidentified symmetry.
 Alpha  occ. eigenvalues --  -89.88351  -8.93788  -6.90681  -6.90111  -6.90111
 Alpha  occ. eigenvalues --   -1.54028  -1.10780  -1.10780
 Alpha virt. eigenvalues --   -1.00883  -0.45963  -0.45963  -0.45676  -0.45676
 Alpha virt. eigenvalues --   -0.44950  -0.41736  -0.32170  -0.32166  -0.32166
 Alpha virt. eigenvalues --   -0.11472  -0.11428  -0.11428  -0.03398   0.19165

  Beta  occ. eigenvalues --  -89.86777  -8.92385  -6.89877  -6.87196  -6.87196
  Beta  occ. eigenvalues --   -1.43238
  Beta virt. eigenvalues --   -0.97447  -0.91857  -0.91857  -0.41915  -0.41033
  Beta virt. eigenvalues --   -0.41033  -0.40369  -0.38280  -0.38280  -0.31475
  Beta virt. eigenvalues --   -0.30574  -0.30574  -0.11392  -0.10437  -0.10437

 Mulliken charges and spin densities:
               1          2
     1  S    2.000000   2.000000
 Sum of Mulliken charges =   2.00000   2.00000

 Dipole moment (field-independent basis, Debye):
    X=              0.0000    Y=              0.0000    Z=              0.0000  Tot=              0.0000
 Quadrupole moment (field-independent basis, Debye-Ang):
   XX=             -7.3379   YY=             -7.3379   ZZ=             -5.5022
   XY=              0.0000   XZ=              0.0000   YZ=             -0.0000

  Exact polarizability:   7.173   0.000   7.173   0.000  -0.000   7.443
 Approx polarizability:   9.216  -0.000   9.216  -0.000  -0.000  11.977

 - Thermochemistry -
 -------------------
 Temperature   298.150 Kelvin.  Pressure   1.00000 Atm.
 Atom     1 has atomic number 16 and mass  31.97207
 Molecular mass:    31.97207 amu.
 Zero-point vibrational energy          0.0 (Joules/Mol)
                                    0.00000 (Kcal/Mol)
 Vibrational temperatures:
          (Kelvin)

 Zero-point correction=                           0.000000 (Hartree/Particle)
 Thermal correction to Energy=                    0.001416
 Thermal correction to Enthalpy=                  0.002360
 Thermal correction to Gibbs Free Energy=        -0.015933
 Sum of electronic and zero-point Energies=           -396.892566
 Sum of electronic and thermal Energies=              -396.891150
 Sum of electronic and thermal Enthalpies=            -396.890206
 Sum of electronic and thermal Free Energies=         -396.908500

                     E (Thermal)             CV                S
                      KCal/Mol        Cal/Mol-Kelvin    Cal/Mol-Kelvin
 Total                    0.889              2.981             38.502
 Electronic               0.000              0.000              2.183
 Translational            0.889              2.981             36.319
 Rotational               0.000              0.000              0.000
 Vibrational              0.000              0.000              0.000

 Optimization completed.
    -- Stationary point found.
 Normal termination of Gaussian 09 at Wed Aug  3 20:31:13 2016.
