 Gaussian 09, Revision E.01,
 Gaussian 09:  EM64L-G09RevE.01 30-Nov-2015

 ------------------------------
 #p b3lyp/6-311++G(3df,2p) freq
 ------------------------------

 ---------
 b3lyp opt
 ---------
 Symbolic Z-matrix:
 Charge =  0 Multiplicity = 3

                         Standard orientation:
 ---------------------------------------------------------------------
 Center     Atomic      Atomic             Coordinates (Angstroms)
 Number     Number       Type             X           Y           Z
 ---------------------------------------------------------------------
      1         16           0        0.000000    0.000000    0.951274
      2         16           0        0.000000    0.000000   -0.951274
 ---------------------------------------------------------------------

 SCF Done:  E(UB3LYP) =  -796.433240378     A.U. after    9 cycles

 The electronic state is 3-SGG.
 Alpha  occ. eigenvalues --  -88.90338 -88.90338  -7.98652  -7.98642  -5.94809
 Alpha  occ. eigenvalues --   -5.94809  -5.94803  -5.94803  -5.94725  -5.94647
 Alpha  occ. eigenvalues --   -0.84308  -0.63874  -0.40499  -0.38203  -0.38203
 Alpha  occ. eigenvalues --   -0.25174  -0.25174
 Alpha virt. eigenvalues --   -0.02598   0.01127   0.04464   0.04464   0.05672
 Alpha virt. eigenvalues --    0.05687   0.08086   0.08086   0.13835   0.15032
 Alpha virt. eigenvalues --    0.15032   0.17525   0.17525   0.22811   0.26694

  Beta  occ. eigenvalues --  -88.89671 -88.89671  -7.98053  -7.98040  -5.94380
  Beta  occ. eigenvalues --   -5.94301  -5.93575  -5.93575  -5.93569  -5.93569
  Beta  occ. eigenvalues --   -0.81546  -0.58307  -0.38253  -0.33376  -0.33376
  Beta virt. eigenvalues --   -0.14353  -0.14353  -0.01345   0.01293   0.04515
  Beta virt. eigenvalues --    0.04515   0.05716   0.06188   0.08349   0.08349
  Beta virt. eigenvalues --    0.14158   0.17393   0.17394   0.19650   0.19650

 Mulliken charges and spin densities:
               1          2
     1  S   -0.000000   1.000000
     2  S   -0.000000   1.000000
 Sum of Mulliken charges =  -0.00000   2.00000

 Dipole moment (field-independent basis, Debye):
    X=             -0.0000    Y=              0.0000    Z=              0.0000  Tot=              0.0000
 Quadrupole moment (field-independent basis, Debye-Ang):
   XX=            -26.0558   YY=            -26.0558   ZZ=            -24.1796
   XY=              0.0000   XZ=              0.0000   YZ=              0.0000

  Exact polarizability:  30.052  -0.000  30.052   0.000   0.000  57.995
 Approx polarizability:  46.449  -0.000  46.449  -0.000  -0.000 122.179

                      1
                     SGG
 Frequencies --    715.7461
 Red. masses --     31.9721
 Frc consts  --      9.6503
 IR Inten    --      0.0000

 - Thermochemistry -
 -------------------
 Temperature   298.150 Kelvin.  Pressure   1.00000 Atm.
 Atom     1 has atomic number 16 and mass  31.97207

 Molecular mass:    63.94414 amu.
 Principal axes and moments of inertia in atomic units:
                           1         2         3
     Eigenvalues --    -0.00000 206.63780 206.63780
           X           -0.00000   1.00000  -0.00000
           Y            0.00000   0.00000   1.00000
           Z            1.00000   0.00000  -0.00000
 This molecule is a prolate symmetric top.
 Rotational symmetry number  2.
 Rotational temperature (Kelvin)      0.41916
 Rotational constant (GHZ):           8.733839
 Zero-point vibrational energy       4281.1 (Joules/Mol)
                                    1.02321 (Kcal/Mol)
 Vibrational temperatures:   1029.80
          (Kelvin)

 Zero-point correction=                           0.001631 (Hartree/Particle)
 Thermal correction to Energy=                    0.004098
 Thermal correction to Enthalpy=                  0.005042
 Thermal correction to Gibbs Free Energy=        -0.020861
 Sum of electronic and zero-point Energies=           -796.431610
 Sum of electronic and thermal Energies=              -796.429143
 Sum of electronic and thermal Enthalpies=            -796.428199
 Sum of electronic and thermal Free Energies=         -796.454101

                     E (Thermal)             CV                S
                      KCal/Mol        Cal/Mol-Kelvin    Cal/Mol-Kelvin
 Total                    2.571              5.767             54.516
 Electronic               0.000              0.000              2.183
 Translational            0.889              2.981             38.385
 Rotational               0.592              1.987             13.660
 Vibrational              1.090              0.799              0.288

 Optimization completed.
    -- Stationary point found.
 Normal termination of Gaussian 09 at Wed Aug  3 20:31:08 2016.
