 Gaussian 09, Revision E.01,
 Gaussian 09:  EM64L-G09RevE.01 30-Nov-2015

 ------------------------------
 #p b3lyp/6-311++G(3df,2p) freq
 ------------------------------

 ---------
 b3lyp opt
 ---------
 Symbolic Z-matrix:
 Charge =  2 Multiplicity = 1

                         Standard orientation:
 ---------------------------------------------------------------------
 Center     Atomic      Atomic             Coordinates (Angstroms)
 Number     Number       Type             X           Y           Z
 ---------------------------------------------------------------------
      1         16           0        0.000000    0.000000    0.884179
      2         16           0        0.000000    0.000000   -0.884179
 ---------------------------------------------------------------------

 SCF Done:  E(RB3LYP) =  -795.451345671     A.U. after    8 cycles

 The electronic state is 1-SGG.
 Alpha  occ. eigenvalues --  -89.58557 -89.58556  -8.65972  -8.65932  -6.62072
 Alpha  occ. eigenvalues --   -6.62072  -6.62056  -6.62056  -6.61805  -6.61622
 Alpha  occ. eigenvalues --   -1.48908  -1.20639  -0.99917  -0.97120  -0.97120
 Alpha virt. eigenvalues --   -0.74318  -0.74318  -0.52713  -0.42198  -0.37465
 Alpha virt. eigenvalues --   -0.37465  -0.36547  -0.36547  -0.29877  -0.28191
 Alpha virt. eigenvalues --   -0.27747  -0.27747  -0.22263  -0.22263  -0.21603

 Mulliken charges:
               1
     1  S    1.000000
     2  S    1.000000
 Sum of Mulliken charges =   2.00000

 Dipole moment (field-independent basis, Debye):
    X=              0.0000    Y=             -0.0000    Z=             -0.0000  Tot=              0.0000
 Quadrupole moment (field-independent basis, Debye-Ang):
   XX=            -17.7924   YY=            -17.7924   ZZ=             -6.5622
   XY=              0.0000   XZ=             -0.0000   YZ=              0.0000

  Exact polarizability:  16.951  -0.000  16.951   0.000  -0.000  33.647
 Approx polarizability:  28.216  -0.000  28.216  -0.000  -0.000 106.999

                      1
                     SGG
 Frequencies --    920.9273
 Red. masses --     31.9721
 Frc consts  --     15.9761
 IR Inten    --      0.0000

 - Thermochemistry -
 -------------------
 Temperature   298.150 Kelvin.  Pressure   1.00000 Atm.
 Atom     1 has atomic number 16 and mass  31.97207

 Molecular mass:    63.94414 amu.
 Principal axes and moments of inertia in atomic units:
                           1         2         3
     Eigenvalues --    -0.00000 178.51672 178.51672
           X           -0.00000   1.00000  -0.00000
           Y            0.00000   0.00000   1.00000
           Z            1.00000   0.00000  -0.00000
 This molecule is a prolate symmetric top.
 Rotational symmetry number  2.
 Rotational temperature (Kelvin)      0.48519
 Rotational constant (GHZ):          10.109648
 Zero-point vibrational energy       5508.4 (Joules/Mol)
                                    1.31653 (Kcal/Mol)
 Vibrational temperatures:   1325.01
          (Kelvin)

 Zero-point correction=                           0.002098 (Hartree/Particle)
 Thermal correction to Energy=                    0.004508
 Thermal correction to Enthalpy=                  0.005453
 Thermal correction to Gibbs Free Energy=        -0.019199
 Sum of electronic and zero-point Energies=           -795.449248
 Sum of electronic and thermal Energies=              -795.446837
 Sum of electronic and thermal Enthalpies=            -795.445893
 Sum of electronic and thermal Free Energies=         -795.470544

                     E (Thermal)             CV                S
                      KCal/Mol        Cal/Mol-Kelvin    Cal/Mol-Kelvin
 Total                    2.829              5.440             51.883
 Electronic               0.000              0.000              0.000
 Translational            0.889              2.981             38.385
 Rotational               0.592              1.987             13.369
 Vibrational              1.348              0.472              0.128

 Optimization completed.
    -- Stationary point found.
 Normal termination of Gaussian 09 at Wed Aug  3 20:31:06 2016.
